   6   6   0   0
  0.1215000E+03  0.9000000E-09  0.9000000E-09  0.9000000E-09  0.5000000E-15
  1.000000000000000E-004
  CAR 
 C2H4                                    
      3.11758144    -21.05176684  301     -6.62175224      1.00000000
    -21.052  0.0000E+00  0.0000E+00
    -20.971  0.0000E+00  0.0000E+00
    -20.891  0.0000E+00  0.0000E+00
    -20.810  0.0000E+00  0.0000E+00
    -20.730 -0.8062E-32 -0.6495E-33
    -20.649 -0.5612E-29 -0.4527E-30
    -20.568 -0.2819E-26 -0.2275E-27
    -20.488 -0.1020E-23 -0.8243E-25
    -20.407 -0.2661E-21 -0.2152E-22
    -20.327 -0.4996E-19 -0.4046E-20
    -20.246 -0.6750E-17 -0.5478E-18
    -20.166 -0.6343E-15 -0.5165E-16
    -20.085 -0.4406E-13 -0.3601E-14
    -20.004 -0.2190E-11 -0.1800E-12
    -19.924 -0.7781E-10 -0.6448E-11
    -19.843 -0.1969E-08 -0.1651E-09
    -19.763 -0.3532E-07 -0.3010E-08
    -19.682 -0.4458E-06 -0.3893E-07
    -19.602 -0.3913E-05 -0.3542E-06
    -19.521 -0.2338E-04 -0.2237E-05
    -19.440 -0.9080E-04 -0.9553E-05
    -19.360 -0.2017E-03 -0.2580E-04
    -19.279 -0.1036E-03 -0.3415E-04
    -19.199  0.7773E-03  0.2847E-04
    -19.118  0.2567E-02  0.2353E-03
    -19.038  0.4025E-02  0.5596E-03
    -18.957  0.3669E-02  0.8551E-03
    -18.877  0.1886E-02  0.1007E-02
    -18.796  0.3473E-03  0.1035E-02
    -18.715 -0.1948E-03  0.1019E-02
    -18.635 -0.1654E-03  0.1006E-02
    -18.554 -0.5957E-04  0.1001E-02
    -18.474 -0.1308E-04  0.1000E-02
    -18.393 -0.1907E-05  0.1000E-02
    -18.313 -0.1910E-06  0.1000E-02
    -18.232 -0.1336E-07  0.1000E-02
    -18.151 -0.6599E-09  0.1000E-02
    -18.071 -0.2315E-10  0.1000E-02
    -17.990 -0.5790E-12  0.1000E-02
    -17.910 -0.1036E-13  0.1000E-02
    -17.829 -0.1350E-15  0.1000E-02
    -17.749  0.0000E+00  0.1000E-02
    -17.668  0.0000E+00  0.1000E-02
    -17.587  0.0000E+00  0.1000E-02
    -17.507  0.0000E+00  0.1000E-02
    -17.426  0.0000E+00  0.1000E-02
    -17.346  0.0000E+00  0.1000E-02
    -17.265  0.0000E+00  0.1000E-02
    -17.185  0.0000E+00  0.1000E-02
    -17.104  0.0000E+00  0.1000E-02
    -17.024  0.0000E+00  0.1000E-02
    -16.943  0.0000E+00  0.1000E-02
    -16.862  0.0000E+00  0.1000E-02
    -16.782  0.0000E+00  0.1000E-02
    -16.701  0.0000E+00  0.1000E-02
    -16.621  0.0000E+00  0.1000E-02
    -16.540  0.0000E+00  0.1000E-02
    -16.460  0.0000E+00  0.1000E-02
    -16.379  0.0000E+00  0.1000E-02
    -16.298  0.0000E+00  0.1000E-02
    -16.218  0.0000E+00  0.1000E-02
    -16.137 -0.3979E-29  0.1000E-02
    -16.057 -0.2031E-26  0.1000E-02
    -15.976 -0.7485E-24  0.1000E-02
    -15.896 -0.1987E-21  0.1000E-02
    -15.815 -0.3797E-19  0.1000E-02
    -15.735 -0.5222E-17  0.1000E-02
    -15.654 -0.4998E-15  0.1000E-02
    -15.573 -0.3534E-13  0.1000E-02
    -15.493 -0.1789E-11  0.1000E-02
    -15.412 -0.6471E-10  0.1000E-02
    -15.332 -0.1668E-08  0.1000E-02
    -15.251 -0.3049E-07  0.1000E-02
    -15.171 -0.3923E-06  0.1000E-02
    -15.090 -0.3513E-05  0.9997E-03
    -15.009 -0.2145E-04  0.9980E-03
    -14.929 -0.8544E-04  0.9911E-03
    -14.848 -0.1970E-03  0.9752E-03
    -14.768 -0.1234E-03  0.9653E-03
    -14.687  0.7023E-03  0.1022E-02
    -14.607  0.2462E-02  0.1220E-02
    -14.526  0.3985E-02  0.1541E-02
    -14.445  0.3738E-02  0.1842E-02
    -14.365  0.1990E-02  0.2003E-02
    -14.284  0.4047E-03  0.2035E-02
    -14.204 -0.1860E-03  0.2020E-02
    -14.123 -0.1716E-03  0.2006E-02
    -14.043 -0.6382E-04  0.2001E-02
    -13.962 -0.1436E-04  0.2000E-02
    -13.882 -0.2137E-05  0.2000E-02
    -13.801 -0.2183E-06  0.2000E-02
    -13.720 -0.1557E-07  0.2000E-02
    -13.640 -0.7832E-09  0.2000E-02
    -13.559 -0.2798E-10  0.2000E-02
    -13.479 -0.7128E-12  0.2000E-02
    -13.398 -0.1299E-13  0.2000E-02
    -13.318 -0.1681E-15  0.2000E-02
    -13.237 -0.2756E-17  0.2000E-02
    -13.156 -0.9414E-26  0.2000E-02
    -13.076 -0.3191E-23  0.2000E-02
    -12.995 -0.7793E-21  0.2000E-02
    -12.915 -0.1370E-18  0.2000E-02
    -12.834 -0.1664E-16  0.2000E-02
    -12.754 -0.1524E-14  0.2000E-02
    -12.673 -0.9893E-13  0.2000E-02
    -12.592 -0.4599E-11  0.2000E-02
    -12.512 -0.1527E-09  0.2000E-02
    -12.431 -0.3608E-08  0.2000E-02
    -12.351 -0.6037E-07  0.2000E-02
    -12.270 -0.7094E-06  0.2000E-02
    -12.190 -0.5778E-05  0.1999E-02
    -12.109 -0.3182E-04  0.1997E-02
    -12.029 -0.1122E-03  0.1988E-02
    -11.948 -0.2142E-03  0.1971E-02
    -11.867 -0.8733E-05  0.1970E-02
    -11.787  0.1082E-02  0.2057E-02
    -11.706  0.2946E-02  0.2294E-02
    -11.626  0.4121E-02  0.2626E-02
    -11.545  0.3376E-02  0.2898E-02
    -11.465  0.1511E-02  0.3020E-02
    -11.384  0.1624E-03  0.3033E-02
    -11.303 -0.2138E-03  0.3016E-02
    -11.223 -0.1414E-03  0.3005E-02
    -11.142 -0.4557E-04  0.3001E-02
    -11.062 -0.9284E-05  0.3000E-02
    -10.981 -0.2369E-05  0.3000E-02
    -10.901 -0.8622E-05  0.2999E-02
    -10.820 -0.4299E-04  0.2996E-02
    -10.740 -0.1364E-03  0.2985E-02
    -10.659 -0.2155E-03  0.2967E-02
    -10.578  0.1292E-03  0.2978E-02
    -10.498  0.1435E-02  0.3093E-02
    -10.417  0.3308E-02  0.3360E-02
    -10.337  0.4130E-02  0.3693E-02
    -10.256  0.3022E-02  0.3936E-02
    -10.176  0.1150E-02  0.4029E-02
    -10.095  0.1576E-04  0.4030E-02
    -10.014 -0.2156E-03  0.4013E-02
     -9.934 -0.1170E-03  0.4003E-02
     -9.853 -0.3387E-04  0.4001E-02
     -9.773 -0.6257E-05  0.4000E-02
     -9.692 -0.7805E-06  0.4000E-02
     -9.612 -0.6899E-07  0.4000E-02
     -9.531 -0.3290E-07  0.4000E-02
     -9.450 -0.3736E-06  0.4000E-02
     -9.370 -0.3370E-05  0.4000E-02
     -9.289 -0.2074E-04  0.3998E-02
     -9.209 -0.8343E-04  0.3991E-02
     -9.128 -0.1951E-03  0.3976E-02
     -9.048 -0.1304E-03  0.3965E-02
     -8.967  0.6743E-03  0.4019E-02
     -8.887  0.2422E-02  0.4215E-02
     -8.806  0.3968E-02  0.4534E-02
     -8.725  0.3763E-02  0.4837E-02
     -8.645  0.2030E-02  0.5001E-02
     -8.564  0.4276E-03  0.5035E-02
     -8.484 -0.1822E-03  0.5021E-02
     -8.403 -0.1740E-03  0.5007E-02
     -8.323 -0.6551E-04  0.5001E-02
     -8.242 -0.1487E-04  0.5000E-02
     -8.161 -0.2232E-05  0.5000E-02
     -8.081 -0.2297E-06  0.5000E-02
     -8.000 -0.1650E-07  0.5000E-02
     -7.920 -0.8361E-09  0.5000E-02
     -7.839 -0.3010E-10  0.5000E-02
     -7.759 -0.1815E-11  0.5000E-02
     -7.678 -0.3963E-10  0.5000E-02
     -7.597 -0.1072E-08  0.5000E-02
     -7.517 -0.2058E-07  0.5000E-02
     -7.436 -0.2786E-06  0.5000E-02
     -7.356 -0.2630E-05  0.5000E-02
     -7.275 -0.1699E-04  0.4998E-02
     -7.195 -0.7223E-04  0.4993E-02
     -7.114 -0.1828E-03  0.4978E-02
     -7.034 -0.1651E-03  0.4965E-02
     -6.953  0.5194E-03  0.5006E-02
     -6.872  0.2184E-02  0.5182E-02
     -6.792  0.3852E-02  0.5493E-02
     -6.711  0.3896E-02  0.5807E-02
     -6.631  0.2267E-02  0.5989E-02
     -6.550  0.5719E-03  0.6035E-02
     -6.470 -0.1541E-03  0.6023E-02
     -6.389 -0.1873E-03  0.6008E-02
     -6.308 -0.7604E-04  0.6002E-02
     -6.228 -0.1823E-04  0.6000E-02
     -6.147 -0.2871E-05  0.6000E-02
     -6.067 -0.3090E-06  0.6000E-02
     -5.986 -0.2317E-07  0.6000E-02
     -5.906 -0.1225E-08  0.6000E-02
     -5.825 -0.4593E-10  0.6000E-02
     -5.745 -0.1228E-11  0.6000E-02
     -5.664 -0.2346E-13  0.6000E-02
     -5.583 -0.3197E-15  0.6000E-02
     -5.503 -0.2756E-17  0.6000E-02
     -5.422  0.0000E+00  0.6000E-02
     -5.342  0.0000E+00  0.6000E-02
     -5.261  0.0000E+00  0.6000E-02
     -5.181  0.0000E+00  0.6000E-02
     -5.100  0.0000E+00  0.6000E-02
     -5.019  0.0000E+00  0.6000E-02
     -4.939  0.0000E+00  0.6000E-02
     -4.858  0.0000E+00  0.6000E-02
     -4.778  0.0000E+00  0.6000E-02
     -4.697  0.0000E+00  0.6000E-02
     -4.617  0.0000E+00  0.6000E-02
     -4.536  0.0000E+00  0.6000E-02
     -4.455  0.0000E+00  0.6000E-02
     -4.375  0.0000E+00  0.6000E-02
     -4.294  0.0000E+00  0.6000E-02
     -4.214  0.0000E+00  0.6000E-02
     -4.133  0.0000E+00  0.6000E-02
     -4.053  0.0000E+00  0.6000E-02
     -3.972  0.0000E+00  0.6000E-02
     -3.892  0.0000E+00  0.6000E-02
     -3.811  0.0000E+00  0.6000E-02
     -3.730  0.0000E+00  0.6000E-02
     -3.650  0.0000E+00  0.6000E-02
     -3.569  0.0000E+00  0.6000E-02
     -3.489  0.0000E+00  0.6000E-02
     -3.408  0.0000E+00  0.6000E-02
     -3.328  0.0000E+00  0.6000E-02
     -3.247  0.0000E+00  0.6000E-02
     -3.166  0.0000E+00  0.6000E-02
     -3.086  0.0000E+00  0.6000E-02
     -3.005  0.0000E+00  0.6000E-02
     -2.925  0.0000E+00  0.6000E-02
     -2.844  0.0000E+00  0.6000E-02
     -2.764 -0.1284E-30  0.6000E-02
     -2.683 -0.7797E-28  0.6000E-02
     -2.602 -0.3417E-25  0.6000E-02
     -2.522 -0.1079E-22  0.6000E-02
     -2.441 -0.2454E-20  0.6000E-02
     -2.361 -0.4017E-18  0.6000E-02
     -2.280 -0.4593E-16  0.6000E-02
     -2.200 -0.3869E-14  0.6000E-02
     -2.119 -0.2337E-12  0.6000E-02
     -2.039 -0.1010E-10  0.6000E-02
     -1.958 -0.3117E-09  0.6000E-02
     -1.877 -0.6839E-08  0.6000E-02
     -1.797 -0.1061E-06  0.6000E-02
     -1.716 -0.1153E-05  0.6000E-02
     -1.636 -0.8652E-05  0.5999E-02
     -1.555 -0.4354E-04  0.5996E-02
     -1.475 -0.1375E-03  0.5985E-02
     -1.394 -0.2154E-03  0.5967E-02
     -1.313  0.1337E-03  0.5978E-02
     -1.233  0.1435E-02  0.6094E-02
     -1.152  0.3250E-02  0.6355E-02
     -1.072  0.3945E-02  0.6673E-02
     -0.991  0.2842E-02  0.6902E-02
     -0.911  0.1665E-02  0.7036E-02
     -0.830  0.2211E-02  0.7215E-02
     -0.750  0.3646E-02  0.7508E-02
     -0.669  0.3771E-02  0.7812E-02
     -0.588  0.2217E-02  0.7991E-02
     -0.508  0.5547E-03  0.8035E-02
     -0.427 -0.1573E-03  0.8023E-02
     -0.347 -0.1864E-03  0.8008E-02
     -0.266 -0.7525E-04  0.8002E-02
     -0.186 -0.1797E-04  0.8000E-02
     -0.105 -0.2902E-05  0.8000E-02
     -0.024 -0.1307E-05  0.8000E-02
      0.056 -0.8538E-05  0.7999E-02
      0.137 -0.4925E-04  0.7995E-02
      0.217 -0.1855E-03  0.7980E-02
      0.298 -0.3979E-03  0.7948E-02
      0.378 -0.1760E-03  0.7934E-02
      0.459  0.1575E-02  0.8061E-02
      0.540  0.5010E-02  0.8465E-02
      0.620  0.7742E-02  0.9088E-02
      0.701  0.7291E-02  0.9676E-02
      0.781  0.4951E-02  0.1007E-01
      0.862  0.3763E-02  0.1038E-01
      0.942  0.4116E-02  0.1071E-01
      1.023  0.4665E-02  0.1109E-01
      1.103  0.4778E-02  0.1147E-01
      1.184  0.4043E-02  0.1180E-01
      1.265  0.2346E-02  0.1198E-01
      1.345  0.6544E-03  0.1204E-01
      1.426 -0.1400E-03  0.1203E-01
      1.506 -0.2086E-03  0.1201E-01
      1.587 -0.9167E-04  0.1200E-01
      1.667 -0.2345E-04  0.1200E-01
      1.748 -0.3918E-05  0.1200E-01
      1.829 -0.4460E-06  0.1200E-01
      1.909 -0.3532E-07  0.1200E-01
      1.990 -0.1969E-08  0.1200E-01
      2.070 -0.7781E-10  0.1200E-01
      2.151 -0.2190E-11  0.1200E-01
      2.231 -0.4406E-13  0.1200E-01
      2.312 -0.6339E-15  0.1200E-01
      2.393 -0.5512E-17  0.1200E-01
      2.473  0.0000E+00  0.1200E-01
      2.554  0.0000E+00  0.1200E-01
      2.634  0.0000E+00  0.1200E-01
      2.715  0.0000E+00  0.1200E-01
      2.795  0.0000E+00  0.1200E-01
      2.876  0.0000E+00  0.1200E-01
      2.956  0.0000E+00  0.1200E-01
      3.037  0.0000E+00  0.1200E-01
      3.118  0.0000E+00  0.1200E-01
