    6    6 2000    1
  0.1215000E+03  0.9000000E-09  0.9000000E-09  0.9000000E-09  0.5000000E-15
  1.000000000000000E-004
  CAR 
 C2H4                                    
     12      1     12
 
  0.1262379E-14  0.1262379E-14  0.1262379E-14  0.1000000E+01
      1        -19.051767   1.000000
      2        -14.535803   1.000000
      3        -11.655965   1.000000
      4        -10.383629   1.000000
      5         -8.814057   1.000000
      6         -6.790129   1.000000
      7         -1.119458   0.000000
      8         -0.748502   0.000000
      9          0.588893   0.000000
     10          0.622146   0.000000
     11          0.899235   0.000000
     12          1.117581   0.000000
