       N       E                     dE             d eps       ncg     rms          rms(c)
DAV:   1    -0.376286112244E+02   -0.37629E+02   -0.41974E+02    32   0.143E+02    0.149E+01
DAV:   2    -0.329810838032E+02    0.46475E+01   -0.18909E+01    24   0.321E+01    0.905E+00
DAV:   3    -0.304737013987E+02    0.25074E+01   -0.11888E+01    28   0.188E+01    0.223E+00
DAV:   4    -0.303965952528E+02    0.77106E-01   -0.77255E-01    32   0.572E+00    0.119E+00
DAV:   5    -0.303889971689E+02    0.75981E-02   -0.99920E-02    36   0.233E+00    0.435E-01
DAV:   6    -0.303943605840E+02   -0.53634E-02   -0.17756E-02    24   0.104E+00    0.171E-01
DAV:   7    -0.304032763917E+02   -0.89158E-02   -0.10166E-02    24   0.651E-01    0.131E-01
DAV:   8    -0.304133316739E+02   -0.10055E-01   -0.69550E-03    24   0.496E-01    0.660E-02
DAV:   9    -0.304194279887E+02   -0.60963E-02   -0.24905E-03    32   0.285E-01    0.514E-02
DAV:  10    -0.304233536464E+02   -0.39257E-02   -0.11638E-03    40   0.196E-01    0.205E-02
DAV:  11    -0.304254551322E+02   -0.21015E-02   -0.40743E-04    24   0.105E-01    0.104E-02
DAV:  12    -0.304259944873E+02   -0.53936E-03   -0.55431E-05    36   0.350E-02    0.849E-03
DAV:  13    -0.304263432968E+02   -0.34881E-03   -0.92144E-05    24   0.398E-02    0.441E-03
DAV:  14    -0.304263695243E+02   -0.26227E-04   -0.65166E-06    32   0.127E-02
   1 F= -.30426370E+02 E0= -.30430415E+02  d E =-.304264E+02
       N       E                     dE             d eps       ncg     rms          rms(c)
DAV:   1    -0.306899974859E+02   -0.26365E+00   -0.28055E+02    28   0.135E+02    0.714E+00
DAV:   2    -0.305351263473E+02    0.15487E+00   -0.79764E+00    36   0.196E+01    0.424E+00
DAV:   3    -0.303234908657E+02    0.21164E+00   -0.75280E-01    28   0.614E+00    0.164E+00
DAV:   4    -0.303095581878E+02    0.13933E-01   -0.79592E-02    32   0.222E+00    0.506E-01
DAV:   5    -0.303113498755E+02   -0.17917E-02   -0.15949E-02    28   0.863E-01    0.142E-01
DAV:   6    -0.303120409962E+02   -0.69112E-03   -0.31565E-03    32   0.418E-01    0.599E-02
DAV:   7    -0.303121342835E+02   -0.93287E-04   -0.36056E-04    40   0.151E-01
   2 F= -.30312134E+02 E0= -.30316000E+02  d E =0.114235E+00
       N       E                     dE             d eps       ncg     rms          rms(c)
DAV:   1    -0.330981541325E+02   -0.27861E+01   -0.86043E+01    24   0.751E+01    0.309E+00
DAV:   2    -0.331174045293E+02   -0.19250E-01   -0.16134E+00    36   0.896E+00    0.216E+00
DAV:   3    -0.330622415307E+02    0.55163E-01   -0.22371E-01    28   0.297E+00    0.540E-01
DAV:   4    -0.330590745138E+02    0.31670E-02   -0.31796E-02    32   0.110E+00    0.214E-01
DAV:   5    -0.330591733639E+02   -0.98850E-04   -0.26207E-03    28   0.356E-01    0.647E-02
DAV:   6    -0.330594001764E+02   -0.22681E-03   -0.79298E-04    36   0.164E-01    0.315E-02
DAV:   7    -0.330595149398E+02   -0.11476E-03   -0.19667E-04    36   0.847E-02    0.109E-02
DAV:   8    -0.330598389225E+02   -0.32398E-03   -0.83159E-05    28   0.570E-02    0.764E-03
DAV:   9    -0.330600705951E+02   -0.23167E-03   -0.33399E-05    24   0.294E-02    0.437E-03
DAV:  10    -0.330602209923E+02   -0.15040E-03   -0.21653E-05    28   0.213E-02    0.267E-03
DAV:  11    -0.330602736295E+02   -0.52637E-04   -0.49633E-06    28   0.103E-02
   3 F= -.33060274E+02 E0= -.33064139E+02  d E =-.263390E+01
       N       E                     dE             d eps       ncg     rms          rms(c)
DAV:   1    -0.339368543182E+02   -0.87663E+00   -0.25934E+02    24   0.120E+02    0.451E+00
DAV:   2    -0.337396619012E+02    0.19719E+00   -0.41222E+00    32   0.158E+01    0.239E+00
DAV:   3    -0.336871177894E+02    0.52544E-01   -0.55198E-01    32   0.504E+00    0.914E-01
DAV:   4    -0.336923407391E+02   -0.52229E-02   -0.43714E-02    36   0.140E+00    0.373E-01
DAV:   5    -0.336952663935E+02   -0.29257E-02   -0.58107E-03    28   0.573E-01    0.121E-01
DAV:   6    -0.336960987459E+02   -0.83235E-03   -0.10539E-03    24   0.238E-01    0.368E-02
DAV:   7    -0.336965996015E+02   -0.50086E-03   -0.26844E-04    36   0.108E-01    0.179E-02
DAV:   8    -0.336973545081E+02   -0.75491E-03   -0.27971E-04    36   0.849E-02    0.203E-02
DAV:   9    -0.336978440246E+02   -0.48952E-03   -0.14252E-04    36   0.526E-02    0.108E-02
DAV:  10    -0.336980537470E+02   -0.20972E-03   -0.47923E-05    36   0.320E-02    0.515E-03
DAV:  11    -0.336982070978E+02   -0.15335E-03   -0.29190E-05    36   0.244E-02    0.317E-03
DAV:  12    -0.336982342282E+02   -0.27130E-04   -0.38241E-06    36   0.105E-02
   4 F= -.33698234E+02 E0= -.33702099E+02  d E =-.637961E+00
       N       E                     dE             d eps       ncg     rms          rms(c)
DAV:   1    -0.341318459220E+02   -0.43364E+00   -0.52343E+01    24   0.539E+01    0.163E+00
DAV:   2    -0.341543097097E+02   -0.22464E-01   -0.73713E-01    28   0.675E+00    0.114E+00
DAV:   3    -0.341457606618E+02    0.85490E-02   -0.29951E-01    36   0.344E+00    0.449E-01
DAV:   4    -0.341374168472E+02    0.83438E-02   -0.31780E-02    36   0.108E+00    0.186E-01
DAV:   5    -0.341374218155E+02   -0.49683E-05   -0.29178E-03    32   0.356E-01    0.693E-02
DAV:   6    -0.341374740066E+02   -0.52191E-04   -0.69321E-04    28   0.165E-01
   5 F= -.34137474E+02 E0= -.34141339E+02  d E =-.107720E+01
       N       E                     dE             d eps       ncg     rms          rms(c)
DAV:   1    -0.354656243923E+02   -0.13282E+01   -0.70829E+01    24   0.696E+01    0.199E+00
DAV:   2    -0.355261327859E+02   -0.60508E-01   -0.64604E-01    36   0.623E+00    0.128E+00
DAV:   3    -0.355289634030E+02   -0.28306E-02   -0.40111E-02    32   0.184E+00    0.330E-01
DAV:   4    -0.355307192746E+02   -0.17559E-02   -0.61916E-03    24   0.580E-01    0.783E-02
DAV:   5    -0.355319493315E+02   -0.12301E-02   -0.85371E-04    32   0.241E-01    0.406E-02
DAV:   6    -0.355334963035E+02   -0.15470E-02   -0.52776E-04    24   0.137E-01    0.250E-02
DAV:   7    -0.355344421683E+02   -0.94586E-03   -0.27472E-04    28   0.990E-02    0.131E-02
DAV:   8    -0.355352469527E+02   -0.80478E-03   -0.15842E-04    32   0.642E-02    0.719E-03
DAV:   9    -0.355356100981E+02   -0.36315E-03   -0.61308E-05    40   0.383E-02    0.332E-03
DAV:  10    -0.355357392441E+02   -0.12915E-03   -0.14181E-05    40   0.192E-02    0.179E-03
DAV:  11    -0.355358345277E+02   -0.95284E-04   -0.89591E-06    32   0.138E-02
   6 F= -.35535835E+02 E0= -.35539700E+02  d E =-.139836E+01
       N       E                     dE             d eps       ncg     rms          rms(c)
DAV:   1    -0.355358606438E+02   -0.12140E-03   -0.31885E-04    40   0.145E-01    0.445E-03
DAV:   2    -0.355358642749E+02   -0.36312E-05   -0.14552E-06    28   0.888E-03
   7 F= -.35535864E+02 E0= -.35539730E+02  d E =-.139839E+01
       N       E                     dE             d eps       ncg     rms          rms(c)
DAV:   1    -0.361968829575E+02   -0.66102E+00   -0.63830E+01    24   0.600E+01    0.210E+00
DAV:   2    -0.362411201261E+02   -0.44237E-01   -0.10672E+00    28   0.758E+00    0.146E+00
DAV:   3    -0.362211386268E+02    0.19981E-01   -0.10703E-01    32   0.257E+00    0.407E-01
DAV:   4    -0.362238243997E+02   -0.26858E-02   -0.21058E-02    24   0.844E-01    0.134E-01
DAV:   5    -0.362248456774E+02   -0.10213E-02   -0.99793E-04    32   0.252E-01    0.628E-02
DAV:   6    -0.362256657950E+02   -0.82012E-03   -0.41234E-04    24   0.154E-01    0.172E-02
DAV:   7    -0.362261501883E+02   -0.48439E-03   -0.10007E-04    28   0.600E-02    0.106E-02
DAV:   8    -0.362269917726E+02   -0.84158E-03   -0.12577E-04    28   0.558E-02    0.499E-03
DAV:   9    -0.362273937306E+02   -0.40196E-03   -0.70067E-05    24   0.376E-02    0.458E-03
DAV:  10    -0.362275468632E+02   -0.15313E-03   -0.23854E-05    28   0.234E-02    0.203E-03
DAV:  11    -0.362275902906E+02   -0.43427E-04   -0.42225E-06    28   0.950E-03
   8 F= -.36227590E+02 E0= -.36231456E+02  d E =-.691726E+00
       N       E                     dE             d eps       ncg     rms          rms(c)
DAV:   1    -0.362279063981E+02   -0.35953E-03   -0.29930E-02    32   0.132E+00    0.475E-02
DAV:   2    -0.362279189757E+02   -0.12578E-04   -0.45949E-04    28   0.151E-01
   9 F= -.36227919E+02 E0= -.36231784E+02  d E =-.692055E+00
       N       E                     dE             d eps       ncg     rms          rms(c)
DAV:   1    -0.363053119784E+02   -0.77406E-01   -0.29712E+01    24   0.455E+01    0.129E+00
DAV:   2    -0.363001171200E+02    0.51949E-02   -0.37942E-01    32   0.488E+00    0.914E-01
DAV:   3    -0.362979716141E+02    0.21455E-02   -0.31640E-01    36   0.334E+00    0.598E-01
DAV:   4    -0.362836748877E+02    0.14297E-01   -0.50297E-02    40   0.129E+00    0.171E-01
DAV:   5    -0.362841805472E+02   -0.50566E-03   -0.22823E-03    32   0.358E-01    0.562E-02
DAV:   6    -0.362846666598E+02   -0.48611E-03   -0.10059E-03    28   0.179E-01    0.168E-02
DAV:   7    -0.362856736721E+02   -0.10070E-02   -0.18989E-04    24   0.841E-02    0.797E-03
DAV:   8    -0.362860349472E+02   -0.36128E-03   -0.44837E-05    32   0.321E-02    0.707E-03
DAV:   9    -0.362863285999E+02   -0.29365E-03   -0.79506E-05    24   0.477E-02    0.492E-03
DAV:  10    -0.362863578564E+02   -0.29257E-04   -0.34874E-06    32   0.128E-02
  10 F= -.36286358E+02 E0= -.36290223E+02  d E =-.584389E-01
       N       E                     dE             d eps       ncg     rms          rms(c)
DAV:   1    -0.364198108848E+02   -0.13348E+00   -0.58706E+00    24   0.203E+01    0.642E-01
DAV:   2    -0.364139322322E+02    0.58787E-02   -0.68980E-02    32   0.198E+00    0.384E-01
DAV:   3    -0.364116403530E+02    0.22919E-02   -0.29135E-02    32   0.103E+00    0.131E-01
DAV:   4    -0.364113631267E+02    0.27723E-03   -0.38845E-03    28   0.369E-01    0.689E-02
DAV:   5    -0.364115319430E+02   -0.16882E-03   -0.33991E-04    32   0.162E-01    0.189E-02
DAV:   6    -0.364116299173E+02   -0.97974E-04   -0.31308E-05    32   0.391E-02
  11 F= -.36411630E+02 E0= -.36415495E+02  d E =-.183711E+00
       N       E                     dE             d eps       ncg     rms          rms(c)
DAV:   1    -0.364416245824E+02   -0.30093E-01   -0.25066E+00    28   0.126E+01    0.585E-01
DAV:   2    -0.364395048246E+02    0.21198E-02   -0.44972E-02    32   0.152E+00    0.365E-01
DAV:   3    -0.364380467216E+02    0.14581E-02   -0.14777E-02    24   0.711E-01    0.984E-02
DAV:   4    -0.364378315139E+02    0.21521E-03   -0.25160E-03    32   0.286E-01    0.538E-02
DAV:   5    -0.364379085567E+02   -0.77043E-04   -0.23562E-04    28   0.117E-01
  12 F= -.36437909E+02 E0= -.36441774E+02  d E =-.262786E-01
       N       E                     dE             d eps       ncg     rms          rms(c)
DAV:   1    -0.364453795435E+02   -0.75480E-02   -0.23516E-01    32   0.389E+00    0.185E-01
DAV:   2    -0.364450835312E+02    0.29601E-03   -0.44400E-03    24   0.465E-01    0.110E-01
DAV:   3    -0.364449275938E+02    0.15594E-03   -0.12070E-03    24   0.209E-01    0.284E-02
DAV:   4    -0.364449220376E+02    0.55563E-05   -0.21287E-04    32   0.830E-02
  13 F= -.36444922E+02 E0= -.36448787E+02  d E =-.332921E-01
       N       E                     dE             d eps       ncg     rms          rms(c)
DAV:   1    -0.364579416453E+02   -0.13014E-01   -0.22082E+00    24   0.114E+01    0.436E-01
DAV:   2    -0.364535572194E+02    0.43844E-02   -0.24250E-02    24   0.129E+00    0.255E-01
DAV:   3    -0.364528063403E+02    0.75088E-03   -0.19413E-02    32   0.834E-01    0.105E-01
DAV:   4    -0.364523613311E+02    0.44501E-03   -0.27601E-03    28   0.320E-01    0.437E-02
DAV:   5    -0.364523923812E+02   -0.31050E-04   -0.14402E-04    32   0.109E-01
  14 F= -.36452392E+02 E0= -.36456258E+02  d E =-.747034E-02
       N       E                     dE             d eps       ncg     rms          rms(c)
DAV:   1    -0.364580055873E+02   -0.56443E-02   -0.31825E-01    32   0.434E+00    0.168E-01
DAV:   2    -0.364573160303E+02    0.68956E-03   -0.34767E-03    32   0.482E-01    0.958E-02
DAV:   3    -0.364572271301E+02    0.88900E-04   -0.26753E-03    28   0.304E-01    0.372E-02
DAV:   4    -0.364571873619E+02    0.39768E-04   -0.38675E-04    32   0.119E-01
  15 F= -.36457187E+02 E0= -.36461053E+02  d E =-.122653E-01
       N       E                     dE             d eps       ncg     rms          rms(c)
DAV:   1    -0.364680482707E+02   -0.10821E-01   -0.28820E-01    24   0.446E+00    0.157E-01
DAV:   2    -0.364680099702E+02    0.38300E-04   -0.33793E-03    24   0.433E-01    0.974E-02
DAV:   3    -0.364679895196E+02    0.20451E-04   -0.55772E-04    24   0.168E-01
  16 F= -.36467990E+02 E0= -.36471855E+02  d E =-.108022E-01
       N       E                     dE             d eps       ncg     rms          rms(c)
DAV:   1    -0.364708298823E+02   -0.28199E-02   -0.17745E-01    24   0.351E+00    0.139E-01
DAV:   2    -0.364707733826E+02    0.56500E-04   -0.22732E-03    24   0.355E-01    0.859E-02
DAV:   3    -0.364707767817E+02   -0.33991E-05   -0.44464E-04    32   0.150E-01
  17 F= -.36470777E+02 E0= -.36474642E+02  d E =-.135894E-01
       N       E                     dE             d eps       ncg     rms          rms(c)
DAV:   1    -0.364765649317E+02   -0.57915E-02   -0.35107E-01    28   0.461E+00    0.173E-01
DAV:   2    -0.364766144796E+02   -0.49548E-04   -0.50318E-03    32   0.507E-01    0.113E-01
DAV:   3    -0.364765072384E+02    0.10724E-03   -0.12289E-03    32   0.269E-01    0.191E-02
DAV:   4    -0.364765197082E+02   -0.12470E-04   -0.16451E-04    28   0.857E-02
  18 F= -.36476520E+02 E0= -.36480385E+02  d E =-.574293E-02
       N       E                     dE             d eps       ncg     rms          rms(c)
DAV:   1    -0.364766299673E+02   -0.12273E-03   -0.47649E-03    28   0.540E-01    0.184E-02
DAV:   2    -0.364766529033E+02   -0.22936E-04   -0.66416E-05    32   0.609E-02
  19 F= -.36476653E+02 E0= -.36480518E+02  d E =-.587612E-02
       N       E                     dE             d eps       ncg     rms          rms(c)
DAV:   1    -0.364797953520E+02   -0.31654E-02   -0.12440E-01    24   0.298E+00    0.999E-02
DAV:   2    -0.364796587472E+02    0.13660E-03   -0.14158E-03    24   0.294E-01    0.593E-02
DAV:   3    -0.364796252258E+02    0.33521E-04   -0.59530E-04    32   0.149E-01
  20 F= -.36479625E+02 E0= -.36483490E+02  d E =-.297232E-02
       N       E                     dE             d eps       ncg     rms          rms(c)
DAV:   1    -0.364796585295E+02    0.21768E-06   -0.96599E-04    32   0.245E-01    0.187E-02
DAV:   2    -0.364796697240E+02   -0.11194E-04   -0.23947E-05    32   0.419E-02
  21 F= -.36479670E+02 E0= -.36483535E+02  d E =-.301682E-02
       N       E                     dE             d eps       ncg     rms          rms(c)
DAV:   1    -0.364796715509E+02   -0.13021E-04   -0.26433E-03    32   0.443E-01    0.138E-02
DAV:   2    -0.364796795177E+02   -0.79668E-05   -0.21450E-05    32   0.373E-02
  22 F= -.36479680E+02 E0= -.36483545E+02  d E =-.302661E-02
       N       E                     dE             d eps       ncg     rms          rms(c)
DAV:   1    -0.364797337946E+02   -0.62244E-04   -0.15757E-03    32   0.328E-01    0.123E-02
DAV:   2    -0.364797435828E+02   -0.97882E-05   -0.23733E-05    32   0.370E-02
  23 F= -.36479744E+02 E0= -.36483609E+02  d E =-.309068E-02
       N       E                     dE             d eps       ncg     rms          rms(c)
DAV:   1    -0.364802391030E+02   -0.50531E-03   -0.12355E-02    24   0.897E-01    0.326E-02
DAV:   2    -0.364802401724E+02   -0.10694E-05   -0.16506E-04    32   0.912E-02
  24 F= -.36480240E+02 E0= -.36484105E+02  d E =-.496590E-03
       N       E                     dE             d eps       ncg     rms          rms(c)
DAV:   1    -0.364803104670E+02   -0.71364E-04   -0.39412E-03    28   0.519E-01    0.203E-02
DAV:   2    -0.364803108462E+02   -0.37919E-06   -0.44129E-05    32   0.503E-02
  25 F= -.36480311E+02 E0= -.36484176E+02  d E =-.567263E-03
       N       E                     dE             d eps       ncg     rms          rms(c)
DAV:   1    -0.364806355190E+02   -0.32505E-03   -0.11052E-02    24   0.901E-01    0.209E-02
DAV:   2    -0.364806398425E+02   -0.43235E-05   -0.12947E-04    32   0.860E-02
  26 F= -.36480640E+02 E0= -.36484505E+02  d E =-.328996E-03
       N       E                     dE             d eps       ncg     rms          rms(c)
DAV:   1    -0.364806879273E+02   -0.52408E-04   -0.37416E-03    32   0.530E-01    0.149E-02
DAV:   2    -0.364806897607E+02   -0.18334E-05   -0.35219E-05    32   0.461E-02
  27 F= -.36480690E+02 E0= -.36484555E+02  d E =-.378914E-03
       N       E                     dE             d eps       ncg     rms          rms(c)
DAV:   1    -0.364808231509E+02   -0.13522E-03   -0.32963E-03    24   0.478E-01    0.141E-02
DAV:   2    -0.364808249074E+02   -0.17565E-05   -0.38780E-05    32   0.490E-02
  28 F= -.36480825E+02 E0= -.36484690E+02  d E =-.135147E-03
