 vasp.6.4.1 05Apr23 (build Sep 20 2023 19:38:42) complex                        
  
 executed on                Linux date 2024.03.25  10:52:20
 running    4 mpi-ranks, with    1 threads/rank, on    1 nodes
 distrk:  each k-point on    4 cores,    1 groups
 distr:  one band on NCORE=   1 cores,    4 groups


--------------------------------------------------------------------------------------------------------


 INCAR:
   SYSTEM = C2H4
   ENCUT = 500
   EDIFF = 1.0E-4
   EDIFFG = -0.05
   IBRION = 2
   NSW = 2000
   GGA = BF  
   NPAR = 3

 POTCAR:   PAW_PBE C 08Apr2002                    
 POTCAR:   PAW_PBE H 15Jun2001                    
 POTCAR:   PAW_PBE C 08Apr2002                    
   VRHFIN =C: s2p2                                                                                  
   LEXCH  = PE                                                                                      
   EATOM  =   147.1560 eV,   10.8157 Ry                                                             
                                                                                                    
   TITEL  = PAW_PBE C 08Apr2002                                                                     
   LULTRA =        F    use ultrasoft PP ?                                                          
   IUNSCR =        0    unscreen: 0-lin 1-nonlin 2-no                                               
   RPACOR =     .000    partial core radius                                                         
   POMASS =   12.011; ZVAL   =    4.000    mass and valenz                                          
   RCORE  =    1.500    outmost cutoff radius                                                       
   RWIGS  =    1.630; RWIGS  =     .863    wigner-seitz radius (au A)                               
   ENMAX  =  400.000; ENMIN  =  300.000 eV                                                          
   ICORE  =        2    local potential                                                             
   LCOR   =        T    correct aug charges                                                         
   LPAW   =        T    paw PP                                                                      
   EAUG   =  644.873                                                                                
   DEXC   =     .000                                                                                
   RMAX   =    2.266    core radius for proj-oper                                                   
   RAUG   =    1.300    factor for augmentation sphere                                              
   RDEP   =    1.501    radius for radial grids                                                     
   RDEPT  =    1.300    core radius for aug-charge                                                  
   QCUT   =   -5.516; QGAM   =   11.032    optimization parameters                                  
                                                                                                    
   Description                                                                                      
     l     E      TYP  RCUT    TYP  RCUT                                                            
     0   .000     23  1.200                                                                         
     0   .000     23  1.200                                                                         
     1   .000     23  1.500                                                                         
     1  2.500     23  1.500                                                                         
     2   .000      7  1.500                                                                         
  local pseudopotential read in
  atomic valenz-charges read in
  non local Contribution for L=           0  read in
    real space projection operators read in
  non local Contribution for L=           0  read in
    real space projection operators read in
  non local Contribution for L=           1  read in
    real space projection operators read in
  non local Contribution for L=           1  read in
    real space projection operators read in
    PAW grid and wavefunctions read in
 
   number of l-projection  operators is LMAX  =           4
   number of lm-projection operators is LMMAX =           8
 
 POTCAR:   PAW_PBE H 15Jun2001                    
   VRHFIN =H: ultrasoft test                                                                        
   LEXCH  = PE                                                                                      
   EATOM  =    12.4884 eV,     .9179 Ry                                                             
                                                                                                    
   TITEL  = PAW_PBE H 15Jun2001                                                                     
   LULTRA =        F    use ultrasoft PP ?                                                          
   IUNSCR =        0    unscreen: 0-lin 1-nonlin 2-no                                               
   RPACOR =     .000    partial core radius                                                         
   POMASS =    1.000; ZVAL   =    1.000    mass and valenz                                          
   RCORE  =    1.100    outmost cutoff radius                                                       
   RWIGS  =     .700; RWIGS  =     .370    wigner-seitz radius (au A)                               
   ENMAX  =  250.000; ENMIN  =  200.000 eV                                                          
   RCLOC  =     .701    cutoff for local pot                                                        
   LCOR   =        T    correct aug charges                                                         
   LPAW   =        T    paw PP                                                                      
   EAUG   =  400.000                                                                                
   RMAX   =    2.174    core radius for proj-oper                                                   
   RAUG   =    1.200    factor for augmentation sphere                                              
   RDEP   =    1.112    radius for radial grids                                                     
   QCUT   =   -5.749; QGAM   =   11.498    optimization parameters                                  
                                                                                                    
   Description                                                                                      
     l     E      TYP  RCUT    TYP  RCUT                                                            
     0   .000     23  1.100                                                                         
     0   .500     23  1.100                                                                         
     1  -.300     23  1.100                                                                         
  local pseudopotential read in
  atomic valenz-charges read in
  non local Contribution for L=           0  read in
    real space projection operators read in
  non local Contribution for L=           0  read in
    real space projection operators read in
  non local Contribution for L=           1  read in
    real space projection operators read in
    PAW grid and wavefunctions read in
 
   number of l-projection  operators is LMAX  =           3
   number of lm-projection operators is LMMAX =           5
 
 -----------------------------------------------------------------------------
|                                                                             |
|               ----> ADVICE to this user running VASP <----                  |
|                                                                             |
|     You enforced a specific xc type in the INCAR file but a different       |
|     type was found in the POTCAR file.                                      |
|     I HOPE YOU KNOW WHAT YOU ARE DOING!                                     |
|                                                                             |
 -----------------------------------------------------------------------------

 PAW_PBE C 08Apr2002                    :
 energy of atom  1       EATOM= -147.1560
 kinetic energy error for atom=    0.0076 (will be added to EATOM!!)
 PAW_PBE H 15Jun2001                    :
 energy of atom  2       EATOM=  -12.4884
 kinetic energy error for atom=    0.0020 (will be added to EATOM!!)
 
 
 POSCAR:  C  H
  positions in cartesian coordinates
  No initial velocities read in
 exchange correlation table for  LEXCH =       17
   RHO(1)=    0.500       N(1)  =     2000
   RHO(2)=  100.500       N(2)  =     4000

 VTST: version 4.1, (05/19/21)

 CHAIN: initializing optimizer
 
 OPT: Using VASP Conjugate-Gradient optimizer
 CHAIN: Read ICHAIN            0
 
 POSCAR:  C  H
  positions in cartesian coordinates
  No initial velocities read in
 


--------------------------------------------------------------------------------------------------------


 ion  position               nearest neighbor table
   1  0.577  0.497  0.509-   4 1.03   3 1.03   2 1.40
   2  0.422  0.500  0.492-   5 0.92   6 0.92   1 1.40
   3  0.576  0.610  0.517-   1 1.03
   4  0.576  0.383  0.517-   1 1.03
   5  0.423  0.603  0.496-   2 0.92
   6  0.423  0.398  0.496-   2 0.92
 
  LATTYP: Found a simple cubic cell.
 ALAT       =     9.0000000000
  
  Lattice vectors:
  
 A1 = (   9.0000000000,   0.0000000000,   0.0000000000)
 A2 = (   0.0000000000,   9.0000000000,   0.0000000000)
 A3 = (   0.0000000000,   0.0000000000,   9.0000000000)


Analysis of symmetry for initial positions (statically):
=====================================================================
 Subroutine PRICEL returns:
 Original cell was already a primitive cell.
 

 Routine SETGRP: Setting up the symmetry group for a 
 simple cubic supercell.


 Subroutine GETGRP returns: Found  1 space group operations
 (whereof  1 operations were pure point group operations)
 out of a pool of 48 trial point group operations.


The static configuration has the point symmetry C_1 .


Analysis of symmetry for dynamics (positions and initial velocities):
=====================================================================
 Subroutine PRICEL returns:
 Original cell was already a primitive cell.
 

 Routine SETGRP: Setting up the symmetry group for a 
 simple cubic supercell.


 Subroutine GETGRP returns: Found  1 space group operations
 (whereof  1 operations were pure point group operations)
 out of a pool of 48 trial point group operations.


The dynamic configuration has the point symmetry C_1 .


 Subroutine INISYM returns: Found  1 space group operations
 (whereof  1 operations are pure point group operations),
 and found     1 'primitive' translations


----------------------------------------------------------------------------------------

                                     Primitive cell                                     

  volume of cell :     729.0000

  direct lattice vectors                    reciprocal lattice vectors
     9.000000000  0.000000000  0.000000000     0.111111111  0.000000000  0.000000000
     0.000000000  9.000000000  0.000000000     0.000000000  0.111111111  0.000000000
     0.000000000  0.000000000  9.000000000     0.000000000  0.000000000  0.111111111

  length of vectors
     9.000000000  9.000000000  9.000000000     0.111111111  0.111111111  0.111111111

  position of ions in fractional coordinates (direct lattice)
     0.576533180  0.496756346  0.508892500
     0.422223001  0.500347483  0.492484145
     0.576088773  0.610408790  0.516696388
     0.576088773  0.383112790  0.516696388
     0.422889612  0.602877706  0.495790257
     0.422889612  0.397803928  0.495790257

  ion indices of the primitive-cell ions
   primitive index   ion index
                 1           1
                 2           2
                 3           3
                 4           4
                 5           5
                 6           6

----------------------------------------------------------------------------------------

 
 
 KPOINTS: Automatic mesh                          

Automatic generation of k-mesh.
 Grid dimensions read from file:
 generate k-points for:    1    1    1

 Generating k-lattice:

  Cartesian coordinates                     Fractional coordinates (reciprocal lattice)
     0.111111111  0.000000000  0.000000000     1.000000000  0.000000000  0.000000000
     0.000000000  0.111111111  0.000000000     0.000000000  1.000000000  0.000000000
     0.000000000  0.000000000  0.111111111     0.000000000  0.000000000  1.000000000

  Length of vectors
     0.111111111  0.111111111  0.111111111

  Shift w.r.t. Gamma in fractional coordinates (k-lattice)
     0.000000000  0.000000000  0.000000000

 
 Subroutine IBZKPT returns following result:
 ===========================================
 
 Found      1 irreducible k-points:
 
 Following reciprocal coordinates:
            Coordinates               Weight
  0.000000  0.000000  0.000000      1.000000
 
 Following cartesian coordinates:
            Coordinates               Weight
  0.000000  0.000000  0.000000      1.000000
 


--------------------------------------------------------------------------------------------------------




 Dimension of arrays:
   k-points           NKPTS =      1   k-points in BZ     NKDIM =      1   number of bands    NBANDS=     12
   number of dos      NEDOS =    301   number of ions     NIONS =      6
   non local maximal  LDIM  =      4   non local SUM 2l+1 LMDIM =      8
   total plane-waves  NPLWV = 125000
   max r-space proj   IRMAX =      1   max aug-charges    IRDMAX=   2223
   dimension x,y,z NGX =    50 NGY =   50 NGZ =   50
   dimension x,y,z NGXF=   100 NGYF=  100 NGZF=  100
   support grid    NGXF=   100 NGYF=  100 NGZF=  100
   ions per type =               2   4
   NGX,Y,Z   is equivalent  to a cutoff of   9.24,  9.24,  9.24 a.u.
   NGXF,Y,Z  is equivalent  to a cutoff of  18.47, 18.47, 18.47 a.u.

 SYSTEM =  C2H4                                    
 POSCAR =   C  H                                   

 Startparameter for this run:
   NWRITE =      2    write-flag & timer
   PREC   = normal    normal or accurate (medium, high low for compatibility)
   ISTART =      1    job   : 0-new  1-cont  2-samecut
   ICHARG =      0    charge: 1-file 2-atom 10-const
   ISPIN  =      1    spin polarized calculation?
   LNONCOLLINEAR =      F non collinear calculations
   LSORBIT =      F    spin-orbit coupling
   INIWAV =      1    electr: 0-lowe 1-rand  2-diag
   LASPH  =      F    aspherical Exc in radial PAW
 Electronic Relaxation 1
   ENCUT  =  500.0 eV  36.75 Ry    6.06 a.u.  16.41 16.41 16.41*2*pi/ulx,y,z
   ENINI  =  500.0     initial cutoff
   ENAUG  =  644.9 eV  augmentation charge cutoff
   NELM   =     60;   NELMIN=  2; NELMDL=  0     # of ELM steps 
   EDIFF  = 0.1E-03   stopping-criterion for ELM
   LREAL  =      F    real-space projection
   NLSPLINE    = F    spline interpolate recip. space projectors
   LCOMPAT=      F    compatible to vasp.4.4
   GGA_COMPAT  = T    GGA compatible to vasp.4.4-vasp.4.6
   LMAXPAW     = -100 max onsite density
   LMAXMIX     =    2 max onsite mixed and CHGCAR
   VOSKOWN=      0    Vosko Wilk Nusair interpolation
   ROPT   =    0.00000   0.00000
 Ionic relaxation
   EDIFFG = -.5E-01   stopping-criterion for IOM
   NSW    =   2000    number of steps for IOM
   NBLOCK =      1;   KBLOCK =   2000    inner block; outer block 
   IBRION =      2    ionic relax: 0-MD 1-quasi-New 2-CG
   NFREE  =      1    steps in history (QN), initial steepest desc. (CG)
   ISIF   =      2    stress and relaxation
   IWAVPR =     11    prediction:  0-non 1-charg 2-wave 3-comb
   ISYM   =      2    0-nonsym 1-usesym 2-fastsym
   LCORR  =      T    Harris-Foulkes like correction to forces

   POTIM  = 0.5000    time-step for ionic-motion
   TEIN   =    0.0    initial temperature
   TEBEG  =    0.0;   TEEND  =   0.0 temperature during run
   SMASS  =  -3.00    Nose mass-parameter (am)
   estimated Nose-frequenzy (Omega)   =  0.10E-29 period in steps = 0.13E+47 mass=  -0.185E-26a.u.
   SCALEE = 1.0000    scale energy and forces
   NPACO  =    256;   APACO  = 10.0  distance and # of slots for P.C.
   PSTRESS=    0.0 pullay stress

  Mass of Ions in am
   POMASS =  12.01  1.00
  Ionic Valenz
   ZVAL   =   4.00  1.00
  Atomic Wigner-Seitz radii
   RWIGS  =  -1.00 -1.00
  virtual crystal weights 
   VCA    =   1.00  1.00
   NELECT =      12.0000    total number of electrons
   NUPDOWN=      -1.0000    fix difference up-down

 DOS related values:
   EMIN   =  10.00;   EMAX   =-10.00  energy-range for DOS
   EFERMI =   0.00;   METHOD = LEGACY      
   ISMEAR =     1;   SIGMA  =   0.20  broadening in eV -4-tet -1-fermi 0-gaus

 Electronic relaxation 2 (details)
   IALGO  =     38    algorithm
   LDIAG  =      T    sub-space diagonalisation (order eigenvalues)
   LSUBROT=      F    optimize rotation matrix (better conditioning)
   TURBO    =      0    0=normal 1=particle mesh
   IRESTART =      0    0=no restart 2=restart with 2 vectors
   NREBOOT  =      0    no. of reboots
   NMIN     =      0    reboot dimension
   EREF     =   0.00    reference energy to select bands
   IMIX   =      4    mixing-type and parameters
     AMIX     =   0.40;   BMIX     =  1.00
     AMIX_MAG =   1.60;   BMIX_MAG =  1.00
     AMIN     =   0.10
     WC   =   100.;   INIMIX=   1;  MIXPRE=   1;  MAXMIX= -45

 Intra band minimization:
   WEIMIN = 0.0010     energy-eigenvalue tresh-hold
   EBREAK =  0.21E-05  absolut break condition
   DEPER  =   0.30     relativ break condition  

   TIME   =   0.40     timestep for ELM

  volume/ion in A,a.u.               =     121.50       819.92
  Fermi-wavevector in a.u.,A,eV,Ry     =   0.416447  0.786970  2.359629  0.173428
  Thomas-Fermi vector in A             =   1.376048
 
 Write flags
   LWAVE        =      T    write WAVECAR
   LDOWNSAMPLE  =      F    k-point downsampling of WAVECAR
   LCHARG       =      T    write CHGCAR
   LVTOT        =      F    write LOCPOT, total local potential
   LVHAR        =      F    write LOCPOT, Hartree potential only
   LELF         =      F    write electronic localiz. function (ELF)
   LORBIT       =      0    0 simple, 1 ext, 2 COOP (PROOUT), +10 PAW based schemes


 Dipole corrections
   LMONO  =      F    monopole corrections only (constant potential shift)
   LDIPOL =      F    correct potential (dipole corrections)
   IDIPOL =      0    1-x, 2-y, 3-z, 4-all directions 
   EPSILON=  1.0000000 bulk dielectric constant

 Exchange correlation treatment:
   GGA     =    BF    GGA type
   LEXCH   =    17    internal setting for exchange type
   LIBXC   =     F    Libxc                    
   VOSKOWN =     0    Vosko Wilk Nusair interpolation
   LHFCALC =     F    Hartree Fock is set to
   LHFONE  =     F    Hartree Fock one center treatment
   AEXX    =    0.0000 exact exchange contribution

 Linear response parameters
   LEPSILON=     F    determine dielectric tensor
   LRPA    =     F    only Hartree local field effects (RPA)
   LNABLA  =     F    use nabla operator in PAW spheres
   LVEL    =     F    velocity operator in full k-point grid
   CSHIFT  =0.1000    complex shift for real part using Kramers Kronig
   OMEGAMAX=  -1.0    maximum frequency
   DEG_THRESHOLD= 0.2000000E-02 threshold for treating states as degnerate
   RTIME   =   -0.100 relaxation time in fs
  (WPLASMAI=    0.000 imaginary part of plasma frequency in eV, 0.658/RTIME)
   DFIELD  = 0.0000000 0.0000000 0.0000000 field for delta impulse in time
 
  Optional k-point grid parameters
   LKPOINTS_OPT  =     F    use optional k-point grid
   KPOINTS_OPT_MODE=     1    mode for optional k-point grid
 
 Orbital magnetization related:
   ORBITALMAG=     F  switch on orbital magnetization
   LCHIMAG   =     F  perturbation theory with respect to B field
   DQ        =  0.001000  dq finite difference perturbation B field
   LLRAUG    =     F  two centre corrections for induced B field
   LBONE     =     F  B-component reconstruction in AE one-centre
   LVGVCALC  =     T  calculate vGv susceptibility
   LVGVAPPL  =     F  apply vGv susceptibility instead of pGv for G=0

 Random number generation:
   RANDOM_GENERATOR = DEFAULT
   PCG_SEED         = not used


--------------------------------------------------------------------------------------------------------


 conjugate gradient relaxation of ions
 charge density and potential will be updated during run
 non-spin polarized calculation
 Variant of blocked Davidson
 Davidson routine will perform the subspace rotation
 perform sub-space diagonalisation
    after iterative eigenvector-optimisation
 modified Broyden-mixing scheme, WC =      100.0
 initial mixing is a Kerker type mixing with AMIX =  0.4000 and BMIX =      1.0000
 Hartree-type preconditioning will be used
 using additional bands            6
 reciprocal scheme for non local part
 calculate Harris-corrections to forces 
   (improved forces if not selfconsistent)
 use gradient corrections 
 use of overlap-Matrix (Vanderbilt PP)
 Methfessel and Paxton  Order N= 1 SIGMA  =   0.20


--------------------------------------------------------------------------------------------------------


  energy-cutoff  :      500.00
  volume of cell :      729.00
      direct lattice vectors                 reciprocal lattice vectors
     9.000000000  0.000000000  0.000000000     0.111111111  0.000000000  0.000000000
     0.000000000  9.000000000  0.000000000     0.000000000  0.111111111  0.000000000
     0.000000000  0.000000000  9.000000000     0.000000000  0.000000000  0.111111111

  length of vectors
     9.000000000  9.000000000  9.000000000     0.111111111  0.111111111  0.111111111


 
 old parameters found on file WAVECAR:
  energy-cutoff  :      500.00
  volume of cell :      729.00
      direct lattice vectors                 reciprocal lattice vectors
     9.000000000  0.000000000  0.000000000     0.111111111  0.000000000  0.000000000
     0.000000000  9.000000000  0.000000000     0.000000000  0.111111111  0.000000000
     0.000000000  0.000000000  9.000000000     0.000000000  0.000000000  0.111111111

  length of vectors

 
 k-points in units of 2pi/SCALE and weight: Automatic mesh                          
   0.00000000  0.00000000  0.00000000       1.000
 
 k-points in reciprocal lattice and weights: Automatic mesh                          
   0.00000000  0.00000000  0.00000000       1.000
 
 position of ions in fractional coordinates (direct lattice) 
   0.57653318  0.49675635  0.50889250
   0.42222300  0.50034748  0.49248415
   0.57608877  0.61040879  0.51669639
   0.57608877  0.38311279  0.51669639
   0.42288961  0.60287771  0.49579026
   0.42288961  0.39780393  0.49579026
 
 position of ions in cartesian coordinates  (Angst):
   5.18879862  4.47080711  4.58003250
   3.80000700  4.50312735  4.43235731
   5.18479896  5.49367911  4.65026750
   5.18479896  3.44801511  4.65026750
   3.80600650  5.42589935  4.46211231
   3.80600650  3.58023535  4.46211231
 


--------------------------------------------------------------------------------------------------------


 k-point   1 :   0.0000 0.0000 0.0000  plane waves:   18613

 maximum and minimum number of plane-waves per node :     18613    18613

 maximum number of plane-waves:     18613
 maximum index in each direction: 
   IXMAX=   16   IYMAX=   16   IZMAX=   16
   IXMIN=  -16   IYMIN=  -16   IZMIN=  -16


 serial   3D FFT for wavefunctions
 parallel 3D FFT for charge:
    minimum data exchange during FFTs selected (reduces bandwidth)


 total amount of memory used by VASP MPI-rank0    63407. kBytes
=======================================================================

   base      :      30000. kBytes
   nonl-proj :       4169. kBytes
   fftplans  :       9085. kBytes
   grid      :      19240. kBytes
   one-center:         18. kBytes
   wavefun   :        895. kBytes
 
     INWAV:  cpu time      0.0125: real time      0.0126
 Broyden mixing: mesh for mixing (old mesh)
   NGX = 33   NGY = 33   NGZ = 33
  (NGX  =100   NGY  =100   NGZ  =100)
  gives a total of  35937 points

 charge density for first step will be calculated from the start-wavefunctions


--------------------------------------------------------------------------------------------------------


 Maximum index for augmentation-charges          512 (set IRDMAX)


--------------------------------------------------------------------------------------------------------


 initial charge from wavefunction
 First call to EWALD:  gamma=   0.197
 Maximum number of real-space cells 3x 3x 3
 Maximum number of reciprocal cells 3x 3x 3

    FEWALD:  cpu time      0.0017: real time      0.0017


--------------------------------------- Ionic step        1  -------------------------------------------




--------------------------------------- Iteration      1(   1)  ---------------------------------------


    POTLOK:  cpu time      0.1861: real time      0.2223
    SETDIJ:  cpu time      0.0032: real time      0.0033
     EDDAV:  cpu time      0.1122: real time      0.1141
       DOS:  cpu time      0.0005: real time      0.0007
    CHARGE:  cpu time      0.0164: real time      0.0168
    MIXING:  cpu time      0.0040: real time      0.0041
    --------------------------------------------
      LOOP:  cpu time      0.3225: real time      0.3612

 eigenvalue-minimisations  :    32
 total energy-change (2. order) :-0.3762861E+02  (-0.4197433E+02)
 number of electron      12.0000014 magnetization 
 augmentation part        0.2953128 magnetization 

 Broyden mixing:
  rms(total) = 0.14931E+01    rms(broyden)= 0.14929E+01
  rms(prec ) = 0.21191E+01
  weight for this iteration     100.00

 Free energy of the ion-electron system (eV)
  ---------------------------------------------------
  alpha Z        PSCENC =         0.83102696
  Ewald energy   TEWEN  =       263.06744886
  -Hartree energ DENC   =      -488.81891874
  -exchange      EXHF   =         0.00000000
  -V(xc)+E(xc)   XCENC  =        39.39601791
  PAW double counting   =       149.94313915     -153.14126880
  entropy T*S    EENTRO =         0.01159581
  eigenvalues    EBANDS =      -196.34074165
  atomic energy  EATOM  =       347.42308926
  Solvation  Ediel_sol  =         0.00000000
  ---------------------------------------------------
  free energy    TOTEN  =       -37.62861122 eV

  energy without entropy =      -37.64020704  energy(sigma->0) =      -37.63247649


--------------------------------------------------------------------------------------------------------




--------------------------------------- Iteration      1(   2)  ---------------------------------------


    POTLOK:  cpu time      0.1651: real time      0.1659
    SETDIJ:  cpu time      0.0028: real time      0.0028
     EDDAV:  cpu time      0.0738: real time      0.0755
       DOS:  cpu time      0.0002: real time      0.0002
    CHARGE:  cpu time      0.0164: real time      0.0165
    MIXING:  cpu time      0.0085: real time      0.0087
    --------------------------------------------
      LOOP:  cpu time      0.2668: real time      0.2697

 eigenvalue-minimisations  :    24
 total energy-change (2. order) : 0.4647527E+01  (-0.1890859E+01)
 number of electron      12.0000014 magnetization 
 augmentation part        0.3198244 magnetization 

 Broyden mixing:
  rms(total) = 0.90468E+00    rms(broyden)= 0.90463E+00
  rms(prec ) = 0.12563E+01
  weight for this iteration     100.00

 eigenvalues of (default mixing * dielectric matrix)
  average eigenvalue GAMMA=   2.1198
  2.1198

 Free energy of the ion-electron system (eV)
  ---------------------------------------------------
  alpha Z        PSCENC =         0.83102696
  Ewald energy   TEWEN  =       263.06744886
  -Hartree energ DENC   =      -501.50486698
  -exchange      EXHF   =         0.00000000
  -V(xc)+E(xc)   XCENC  =        39.57401131
  PAW double counting   =       163.37517427     -166.63196084
  entropy T*S    EENTRO =         0.01159820
  eigenvalues    EBANDS =      -179.12660485
  atomic energy  EATOM  =       347.42308926
  Solvation  Ediel_sol  =         0.00000000
  ---------------------------------------------------
  free energy    TOTEN  =       -32.98108380 eV

  energy without entropy =      -32.99268200  energy(sigma->0) =      -32.98494987


--------------------------------------------------------------------------------------------------------




--------------------------------------- Iteration      1(   3)  ---------------------------------------


    POTLOK:  cpu time      0.1490: real time      0.1497
    SETDIJ:  cpu time      0.0027: real time      0.0027
     EDDAV:  cpu time      0.0765: real time      0.0789
       DOS:  cpu time      0.0002: real time      0.0002
    CHARGE:  cpu time      0.0135: real time      0.0136
    MIXING:  cpu time      0.0029: real time      0.0029
    --------------------------------------------
      LOOP:  cpu time      0.2449: real time      0.2481

 eigenvalue-minimisations  :    28
 total energy-change (2. order) : 0.2507382E+01  (-0.1188788E+01)
 number of electron      12.0000012 magnetization 
 augmentation part        0.3045817 magnetization 

 Broyden mixing:
  rms(total) = 0.22345E+00    rms(broyden)= 0.22337E+00
  rms(prec ) = 0.32100E+00
  weight for this iteration     100.00

 eigenvalues of (default mixing * dielectric matrix)
  average eigenvalue GAMMA=   1.4947
  1.0264  1.9630

 Free energy of the ion-electron system (eV)
  ---------------------------------------------------
  alpha Z        PSCENC =         0.83102696
  Ewald energy   TEWEN  =       263.06744886
  -Hartree energ DENC   =      -529.37180754
  -exchange      EXHF   =         0.00000000
  -V(xc)+E(xc)   XCENC  =        40.76977757
  PAW double counting   =       191.24725861     -194.63694720
  entropy T*S    EENTRO =         0.01631515
  eigenvalues    EBANDS =      -149.81986306
  atomic energy  EATOM  =       347.42308926
  Solvation  Ediel_sol  =         0.00000000
  ---------------------------------------------------
  free energy    TOTEN  =       -30.47370140 eV

  energy without entropy =      -30.49001655  energy(sigma->0) =      -30.47913978


--------------------------------------------------------------------------------------------------------




--------------------------------------- Iteration      1(   4)  ---------------------------------------


    POTLOK:  cpu time      0.1433: real time      0.1441
    SETDIJ:  cpu time      0.0024: real time      0.0024
     EDDAV:  cpu time      0.0626: real time      0.0633
       DOS:  cpu time      0.0002: real time      0.0002
    CHARGE:  cpu time      0.0096: real time      0.0097
    MIXING:  cpu time      0.0030: real time      0.0030
    --------------------------------------------
      LOOP:  cpu time      0.2211: real time      0.2227

 eigenvalue-minimisations  :    32
 total energy-change (2. order) : 0.7710615E-01  (-0.7725475E-01)
 number of electron      12.0000013 magnetization 
 augmentation part        0.3031357 magnetization 

 Broyden mixing:
  rms(total) = 0.11942E+00    rms(broyden)= 0.11941E+00
  rms(prec ) = 0.17672E+00
  weight for this iteration     100.00

 eigenvalues of (default mixing * dielectric matrix)
  average eigenvalue GAMMA=   1.6049
  2.3745  1.2200  1.2200

 Free energy of the ion-electron system (eV)
  ---------------------------------------------------
  alpha Z        PSCENC =         0.83102696
  Ewald energy   TEWEN  =       263.06744886
  -Hartree energ DENC   =      -526.71547952
  -exchange      EXHF   =         0.00000000
  -V(xc)+E(xc)   XCENC  =        40.63112236
  PAW double counting   =       186.49111113     -189.86583310
  entropy T*S    EENTRO =         0.01461948
  eigenvalues    EBANDS =      -152.27370068
  atomic energy  EATOM  =       347.42308926
  Solvation  Ediel_sol  =         0.00000000
  ---------------------------------------------------
  free energy    TOTEN  =       -30.39659525 eV

  energy without entropy =      -30.41121473  energy(sigma->0) =      -30.40146841


--------------------------------------------------------------------------------------------------------




--------------------------------------- Iteration      1(   5)  ---------------------------------------


    POTLOK:  cpu time      0.1369: real time      0.1376
    SETDIJ:  cpu time      0.0028: real time      0.0028
     EDDAV:  cpu time      0.0701: real time      0.0706
       DOS:  cpu time      0.0003: real time      0.1582
    CHARGE:  cpu time      0.0131: real time      0.0133
    MIXING:  cpu time      0.0035: real time      0.0035
    --------------------------------------------
      LOOP:  cpu time      0.2268: real time      0.3859

 eigenvalue-minimisations  :    36
 total energy-change (2. order) : 0.7598084E-02  (-0.9992025E-02)
 number of electron      12.0000013 magnetization 
 augmentation part        0.3025538 magnetization 

 Broyden mixing:
  rms(total) = 0.43490E-01    rms(broyden)= 0.43487E-01
  rms(prec ) = 0.81879E-01
  weight for this iteration     100.00

 eigenvalues of (default mixing * dielectric matrix)
  average eigenvalue GAMMA=   1.5465
  2.4088  1.5993  1.2017  0.9761

 Free energy of the ion-electron system (eV)
  ---------------------------------------------------
  alpha Z        PSCENC =         0.83102696
  Ewald energy   TEWEN  =       263.06744886
  -Hartree energ DENC   =      -528.76534449
  -exchange      EXHF   =         0.00000000
  -V(xc)+E(xc)   XCENC  =        40.70990239
  PAW double counting   =       186.12356938     -189.50144463
  entropy T*S    EENTRO =         0.01284340
  eigenvalues    EBANDS =      -150.29008831
  atomic energy  EATOM  =       347.42308926
  Solvation  Ediel_sol  =         0.00000000
  ---------------------------------------------------
  free energy    TOTEN  =       -30.38899717 eV

  energy without entropy =      -30.40184057  energy(sigma->0) =      -30.39327830


--------------------------------------------------------------------------------------------------------




--------------------------------------- Iteration      1(   6)  ---------------------------------------


    POTLOK:  cpu time      0.1462: real time      0.1469
    SETDIJ:  cpu time      0.0027: real time      0.0027
     EDDAV:  cpu time      0.0659: real time      0.0668
       DOS:  cpu time      0.0004: real time      0.0004
    CHARGE:  cpu time      0.0173: real time      0.0175
    MIXING:  cpu time      0.0034: real time      0.0035
    --------------------------------------------
      LOOP:  cpu time      0.2360: real time      0.2378

 eigenvalue-minimisations  :    24
 total energy-change (2. order) :-0.5363415E-02  (-0.1775613E-02)
 number of electron      12.0000012 magnetization 
 augmentation part        0.3026661 magnetization 

 Broyden mixing:
  rms(total) = 0.17145E-01    rms(broyden)= 0.17142E-01
  rms(prec ) = 0.48434E-01
  weight for this iteration     100.00

 eigenvalues of (default mixing * dielectric matrix)
  average eigenvalue GAMMA=   1.5639
  2.5576  1.8671  1.0676  1.1636  1.1636

 Free energy of the ion-electron system (eV)
  ---------------------------------------------------
  alpha Z        PSCENC =         0.83102696
  Ewald energy   TEWEN  =       263.06744886
  -Hartree energ DENC   =      -528.87133854
  -exchange      EXHF   =         0.00000000
  -V(xc)+E(xc)   XCENC  =        40.68256209
  PAW double counting   =       184.81265922     -188.18548378
  entropy T*S    EENTRO =         0.01246415
  eigenvalues    EBANDS =      -150.16678880
  atomic energy  EATOM  =       347.42308926
  Solvation  Ediel_sol  =         0.00000000
  ---------------------------------------------------
  free energy    TOTEN  =       -30.39436058 eV

  energy without entropy =      -30.40682473  energy(sigma->0) =      -30.39851530


--------------------------------------------------------------------------------------------------------




--------------------------------------- Iteration      1(   7)  ---------------------------------------


    POTLOK:  cpu time      0.1283: real time      0.1289
    SETDIJ:  cpu time      0.0024: real time      0.0025
     EDDAV:  cpu time      0.0505: real time      0.0509
       DOS:  cpu time      0.0002: real time      0.0002
    CHARGE:  cpu time      0.0118: real time      0.0119
    MIXING:  cpu time      0.0039: real time      0.0039
    --------------------------------------------
      LOOP:  cpu time      0.1972: real time      0.1983

 eigenvalue-minimisations  :    24
 total energy-change (2. order) :-0.8915808E-02  (-0.1016599E-02)
 number of electron      12.0000013 magnetization 
 augmentation part        0.3026566 magnetization 

 Broyden mixing:
  rms(total) = 0.13063E-01    rms(broyden)= 0.13061E-01
  rms(prec ) = 0.33008E-01
  weight for this iteration     100.00

 eigenvalues of (default mixing * dielectric matrix)
  average eigenvalue GAMMA=   1.6000
  2.5163  2.5163  1.6055  0.9690  0.9690  1.0237

 Free energy of the ion-electron system (eV)
  ---------------------------------------------------
  alpha Z        PSCENC =         0.83102696
  Ewald energy   TEWEN  =       263.06744886
  -Hartree energ DENC   =      -529.51234346
  -exchange      EXHF   =         0.00000000
  -V(xc)+E(xc)   XCENC  =        40.68215509
  PAW double counting   =       184.43015914     -187.80141561
  entropy T*S    EENTRO =         0.01225243
  eigenvalues    EBANDS =      -149.53564906
  atomic energy  EATOM  =       347.42308926
  Solvation  Ediel_sol  =         0.00000000
  ---------------------------------------------------
  free energy    TOTEN  =       -30.40327639 eV

  energy without entropy =      -30.41552882  energy(sigma->0) =      -30.40736053


--------------------------------------------------------------------------------------------------------




--------------------------------------- Iteration      1(   8)  ---------------------------------------


    POTLOK:  cpu time      0.1451: real time      0.1458
    SETDIJ:  cpu time      0.0026: real time      0.0026
     EDDAV:  cpu time      0.0639: real time      0.0647
       DOS:  cpu time      0.0004: real time      0.0004
    CHARGE:  cpu time      0.0125: real time      0.0126
    MIXING:  cpu time      0.0043: real time      0.0043
    --------------------------------------------
      LOOP:  cpu time      0.2288: real time      0.2304

 eigenvalue-minimisations  :    24
 total energy-change (2. order) :-0.1005528E-01  (-0.6955006E-03)
 number of electron      12.0000013 magnetization 
 augmentation part        0.3025332 magnetization 

 Broyden mixing:
  rms(total) = 0.66047E-02    rms(broyden)= 0.66042E-02
  rms(prec ) = 0.16634E-01
  weight for this iteration     100.00

 eigenvalues of (default mixing * dielectric matrix)
  average eigenvalue GAMMA=   1.6847
  3.3358  2.4311  1.5134  1.5134  0.9734  1.0128  1.0128

 Free energy of the ion-electron system (eV)
  ---------------------------------------------------
  alpha Z        PSCENC =         0.83102696
  Ewald energy   TEWEN  =       263.06744886
  -Hartree energ DENC   =      -530.10486937
  -exchange      EXHF   =         0.00000000
  -V(xc)+E(xc)   XCENC  =        40.67645662
  PAW double counting   =       184.25178292     -187.62230722
  entropy T*S    EENTRO =         0.01215393
  eigenvalues    EBANDS =      -148.94811362
  atomic energy  EATOM  =       347.42308926
  Solvation  Ediel_sol  =         0.00000000
  ---------------------------------------------------
  free energy    TOTEN  =       -30.41333167 eV

  energy without entropy =      -30.42548560  energy(sigma->0) =      -30.41738298


--------------------------------------------------------------------------------------------------------




--------------------------------------- Iteration      1(   9)  ---------------------------------------


    POTLOK:  cpu time      0.1492: real time      0.1500
    SETDIJ:  cpu time      0.0028: real time      0.0028
     EDDAV:  cpu time      0.0770: real time      0.0777
       DOS:  cpu time      0.0002: real time      0.0002
    CHARGE:  cpu time      0.0115: real time      0.0116
    MIXING:  cpu time      0.0046: real time      0.0046
    --------------------------------------------
      LOOP:  cpu time      0.2452: real time      0.2469

 eigenvalue-minimisations  :    32
 total energy-change (2. order) :-0.6096315E-02  (-0.2490519E-03)
 number of electron      12.0000012 magnetization 
 augmentation part        0.3024637 magnetization 

 Broyden mixing:
  rms(total) = 0.51355E-02    rms(broyden)= 0.51342E-02
  rms(prec ) = 0.10342E-01
  weight for this iteration     100.00

 eigenvalues of (default mixing * dielectric matrix)
  average eigenvalue GAMMA=   1.8675
  4.6095  2.6701  1.9811  1.6960  1.0401  1.0401  0.9515  0.9515

 Free energy of the ion-electron system (eV)
  ---------------------------------------------------
  alpha Z        PSCENC =         0.83102696
  Ewald energy   TEWEN  =       263.06744886
  -Hartree energ DENC   =      -530.28974054
  -exchange      EXHF   =         0.00000000
  -V(xc)+E(xc)   XCENC  =        40.67408991
  PAW double counting   =       184.11482474     -187.48543517
  entropy T*S    EENTRO =         0.01212201
  eigenvalues    EBANDS =      -148.76685402
  atomic energy  EATOM  =       347.42308926
  Solvation  Ediel_sol  =         0.00000000
  ---------------------------------------------------
  free energy    TOTEN  =       -30.41942799 eV

  energy without entropy =      -30.43155000  energy(sigma->0) =      -30.42346866


--------------------------------------------------------------------------------------------------------




--------------------------------------- Iteration      1(  10)  ---------------------------------------


    POTLOK:  cpu time      0.1547: real time      0.1554
    SETDIJ:  cpu time      0.0028: real time      0.0029
     EDDAV:  cpu time      0.0951: real time      0.0968
       DOS:  cpu time      0.0003: real time      0.0003
    CHARGE:  cpu time      0.0150: real time      0.0150
    MIXING:  cpu time      0.0054: real time      0.0055
    --------------------------------------------
      LOOP:  cpu time      0.2733: real time      0.2759

 eigenvalue-minimisations  :    40
 total energy-change (2. order) :-0.3925658E-02  (-0.1163752E-03)
 number of electron      12.0000012 magnetization 
 augmentation part        0.3023932 magnetization 

 Broyden mixing:
  rms(total) = 0.20501E-02    rms(broyden)= 0.20495E-02
  rms(prec ) = 0.45220E-02
  weight for this iteration     100.00

 eigenvalues of (default mixing * dielectric matrix)
  average eigenvalue GAMMA=   2.0304
  5.8273  2.8209  2.2028  1.7769  1.6499  0.9769  0.9769  1.0210  1.0210

 Free energy of the ion-electron system (eV)
  ---------------------------------------------------
  alpha Z        PSCENC =         0.83102696
  Ewald energy   TEWEN  =       263.06744886
  -Hartree energ DENC   =      -530.36741728
  -exchange      EXHF   =         0.00000000
  -V(xc)+E(xc)   XCENC  =        40.67413779
  PAW double counting   =       184.18305406     -187.55403878
  entropy T*S    EENTRO =         0.01213390
  eigenvalues    EBANDS =      -148.69278842
  atomic energy  EATOM  =       347.42308926
  Solvation  Ediel_sol  =         0.00000000
  ---------------------------------------------------
  free energy    TOTEN  =       -30.42335365 eV

  energy without entropy =      -30.43548754  energy(sigma->0) =      -30.42739828


--------------------------------------------------------------------------------------------------------




--------------------------------------- Iteration      1(  11)  ---------------------------------------


    POTLOK:  cpu time      0.1511: real time      0.1518
    SETDIJ:  cpu time      0.0026: real time      0.0026
     EDDAV:  cpu time      0.0694: real time      0.0703
       DOS:  cpu time      0.0003: real time      0.0003
    CHARGE:  cpu time      0.0155: real time      0.0156
    MIXING:  cpu time      0.0066: real time      0.0066
    --------------------------------------------
      LOOP:  cpu time      0.2456: real time      0.2473

 eigenvalue-minimisations  :    24
 total energy-change (2. order) :-0.2101486E-02  (-0.4074338E-04)
 number of electron      12.0000012 magnetization 
 augmentation part        0.3023207 magnetization 

 Broyden mixing:
  rms(total) = 0.10422E-02    rms(broyden)= 0.10419E-02
  rms(prec ) = 0.21218E-02
  weight for this iteration     100.00

 eigenvalues of (default mixing * dielectric matrix)
  average eigenvalue GAMMA=   2.0947
  6.7228  3.1889  2.4958  1.7442  1.7442  1.0778  1.0778  0.9518  0.9721  0.9721

 Free energy of the ion-electron system (eV)
  ---------------------------------------------------
  alpha Z        PSCENC =         0.83102696
  Ewald energy   TEWEN  =       263.06744886
  -Hartree energ DENC   =      -530.38202741
  -exchange      EXHF   =         0.00000000
  -V(xc)+E(xc)   XCENC  =        40.67397260
  PAW double counting   =       184.27145597     -187.64265545
  entropy T*S    EENTRO =         0.01214383
  eigenvalues    EBANDS =      -148.67990976
  atomic energy  EATOM  =       347.42308926
  Solvation  Ediel_sol  =         0.00000000
  ---------------------------------------------------
  free energy    TOTEN  =       -30.42545513 eV

  energy without entropy =      -30.43759897  energy(sigma->0) =      -30.42950308


--------------------------------------------------------------------------------------------------------




--------------------------------------- Iteration      1(  12)  ---------------------------------------


    POTLOK:  cpu time      0.1532: real time      0.1540
    SETDIJ:  cpu time      0.0027: real time      0.0027
     EDDAV:  cpu time      0.0860: real time      0.0870
       DOS:  cpu time      0.0002: real time      0.0002
    CHARGE:  cpu time      0.0091: real time      0.0092
    MIXING:  cpu time      0.0050: real time      0.0050
    --------------------------------------------
      LOOP:  cpu time      0.2563: real time      0.2582

 eigenvalue-minimisations  :    36
 total energy-change (2. order) :-0.5393552E-03  (-0.5543122E-05)
 number of electron      12.0000012 magnetization 
 augmentation part        0.3023115 magnetization 

 Broyden mixing:
  rms(total) = 0.84926E-03    rms(broyden)= 0.84924E-03
  rms(prec ) = 0.14558E-02
  weight for this iteration     100.00

 eigenvalues of (default mixing * dielectric matrix)
  average eigenvalue GAMMA=   2.2252
  7.2334  3.8291  2.8209  2.2760  1.6661  1.6661  0.9781  0.9781  1.0326  1.0326
  0.9639

 Free energy of the ion-electron system (eV)
  ---------------------------------------------------
  alpha Z        PSCENC =         0.83102696
  Ewald energy   TEWEN  =       263.06744886
  -Hartree energ DENC   =      -530.34102407
  -exchange      EXHF   =         0.00000000
  -V(xc)+E(xc)   XCENC  =        40.67200271
  PAW double counting   =       184.26079807     -187.63193937
  entropy T*S    EENTRO =         0.01214255
  eigenvalues    EBANDS =      -148.71953946
  atomic energy  EATOM  =       347.42308926
  Solvation  Ediel_sol  =         0.00000000
  ---------------------------------------------------
  free energy    TOTEN  =       -30.42599449 eV

  energy without entropy =      -30.43813703  energy(sigma->0) =      -30.43004200


--------------------------------------------------------------------------------------------------------




--------------------------------------- Iteration      1(  13)  ---------------------------------------


    POTLOK:  cpu time      0.1331: real time      0.1338
    SETDIJ:  cpu time      0.0038: real time      0.0038
     EDDAV:  cpu time      0.0642: real time      0.0645
       DOS:  cpu time      0.0002: real time      0.0002
    CHARGE:  cpu time      0.0114: real time      0.0115
    MIXING:  cpu time      0.0066: real time      0.0066
    --------------------------------------------
      LOOP:  cpu time      0.2192: real time      0.2205

 eigenvalue-minimisations  :    24
 total energy-change (2. order) :-0.3488095E-03  (-0.9214370E-05)
 number of electron      12.0000012 magnetization 
 augmentation part        0.3023471 magnetization 

 Broyden mixing:
  rms(total) = 0.44062E-03    rms(broyden)= 0.44053E-03
  rms(prec ) = 0.65879E-03
  weight for this iteration     100.00

 eigenvalues of (default mixing * dielectric matrix)
  average eigenvalue GAMMA=   2.1952
  7.2222  4.2476  2.7909  2.3466  1.6027  1.6027  1.4795  0.9788  0.9788  1.1582
  0.9671  0.9671

 Free energy of the ion-electron system (eV)
  ---------------------------------------------------
  alpha Z        PSCENC =         0.83102696
  Ewald energy   TEWEN  =       263.06744886
  -Hartree energ DENC   =      -530.26293960
  -exchange      EXHF   =         0.00000000
  -V(xc)+E(xc)   XCENC  =        40.66781419
  PAW double counting   =       184.19999410     -187.57088142
  entropy T*S    EENTRO =         0.01213503
  eigenvalues    EBANDS =      -148.79403068
  atomic energy  EATOM  =       347.42308926
  Solvation  Ediel_sol  =         0.00000000
  ---------------------------------------------------
  free energy    TOTEN  =       -30.42634330 eV

  energy without entropy =      -30.43847833  energy(sigma->0) =      -30.43038831


--------------------------------------------------------------------------------------------------------




--------------------------------------- Iteration      1(  14)  ---------------------------------------


    POTLOK:  cpu time      0.1483: real time      0.1490
    SETDIJ:  cpu time      0.0026: real time      0.0026
     EDDAV:  cpu time      0.0804: real time      0.0808
       DOS:  cpu time      0.0002: real time      0.0002
    --------------------------------------------
      LOOP:  cpu time      0.2315: real time      0.2327

 eigenvalue-minimisations  :    32
 total energy-change (2. order) :-0.2622748E-04  (-0.6516647E-06)
 number of electron      12.0000012 magnetization 
 augmentation part        0.3023471 magnetization 

 Free energy of the ion-electron system (eV)
  ---------------------------------------------------
  alpha Z        PSCENC =         0.83102696
  Ewald energy   TEWEN  =       263.06744886
  -Hartree energ DENC   =      -530.27382977
  -exchange      EXHF   =         0.00000000
  -V(xc)+E(xc)   XCENC  =        40.66856368
  PAW double counting   =       184.22923485     -187.60022127
  entropy T*S    EENTRO =         0.01213658
  eigenvalues    EBANDS =      -148.78381866
  atomic energy  EATOM  =       347.42308926
  Solvation  Ediel_sol  =         0.00000000
  ---------------------------------------------------
  free energy    TOTEN  =       -30.42636952 eV

  energy without entropy =      -30.43850610  energy(sigma->0) =      -30.43041505


--------------------------------------------------------------------------------------------------------




 average (electrostatic) potential at core
  the test charge radii are     0.6991  0.5201
  (the norm of the test charge is              1.0000)
       1 -59.0729       2 -58.9146       3 -44.9333       4 -44.9058       5 -46.2450
       6 -46.2609
 
 
 
 E-fermi :  -6.8782     XC(G=0):  -1.3431     alpha+bet : -0.4269

 Fermi energy:        -6.8782324047

 k-point     1 :       0.0000    0.0000    0.0000
  band No.  band energies     occupation 
      1     -21.2514      2.00000
      2     -15.3971      2.00000
      3     -13.5079      2.00000
      4      -9.7884      2.00000
      5      -7.4009      2.00137
      6      -7.0460      1.99863
      7      -1.3671      0.00000
      8      -1.0226      0.00000
      9      -0.0474      0.00000
     10       0.4769      0.00000
     11       0.9389      0.00000
     12       1.1101      0.00000


--------------------------------------------------------------------------------------------------------


 soft charge-density along one line, spin component           1
         0         1         2         3         4         5         6         7         8         9
 total charge-density along one line
 
 pseudopotential strength for first ion, spin component:           1
 10.297   0.021  -0.000   0.000  -0.004   0.000  -0.000   0.004
  0.021  -0.001   0.000  -0.000   0.000   0.000  -0.000   0.000
 -0.000   0.000  -4.282   0.000   0.000  -0.021   0.000   0.000
  0.000  -0.000   0.000  -4.264   0.000   0.000  -0.015  -0.000
 -0.004   0.000   0.000   0.000  -4.265   0.000  -0.000  -0.018
  0.000   0.000  -0.021   0.000   0.000  -0.773   0.000   0.000
 -0.000  -0.000   0.000  -0.015  -0.000   0.000  -0.773   0.000
  0.004   0.000   0.000  -0.000  -0.018   0.000   0.000  -0.772
 total augmentation occupancy for first ion, spin component:           1
  1.520  -1.161   0.000  -0.000   0.006   0.001   0.003  -0.044
 -1.161   1.115  -0.004  -0.020   0.246  -0.002  -0.000   0.107
  0.000  -0.004   1.294   0.000   0.004   0.251  -0.000  -0.001
 -0.000  -0.020   0.000   0.860   0.051  -0.000   0.096   0.012
  0.006   0.246   0.004   0.051   1.278  -0.002   0.011   0.181
  0.001  -0.002   0.251  -0.000  -0.002   0.053  -0.000  -0.001
  0.003  -0.000  -0.000   0.096   0.011  -0.000   0.011   0.003
 -0.044   0.107  -0.001   0.012   0.181  -0.001   0.003   0.035


------------------------ aborting loop because EDIFF is reached ----------------------------------------


    CHARGE:  cpu time      0.0131: real time      0.0132
    FORLOC:  cpu time      0.0090: real time      0.0092
    FORNL :  cpu time      0.0144: real time      0.0145
    STRESS:  cpu time      0.0743: real time      0.0746
    FORHAR:  cpu time      0.0342: real time      0.0345
    MIXING:  cpu time      0.0062: real time      0.0062
    OFIELD:  cpu time      0.0000: real time      0.0000

  FORCE on cell =-STRESS in cart. coord.  units (eV):
  Direction    XX          YY          ZZ          XY          YZ          ZX
  --------------------------------------------------------------------------------------
  Alpha Z     0.83103     0.83103     0.83103
  Ewald     172.77247   197.04822  -106.75338    -4.01543    -0.43397    30.36698
  Hartree   240.12193   189.96229   100.17641    -1.92349    -0.21770    14.43329
  E(xc)     -44.50009   -43.68361   -46.71569    -0.02236    -0.00247     0.24769
  Local    -524.31157  -457.66790  -113.35169     5.56553     0.62057   -43.76882
  n-local   -22.07625   -20.06454   -17.86544    -0.05444    -0.00397    -0.42080
  augment    -0.09960    -0.63367    -0.07200     0.00357     0.00035    -0.00331
  Kinetic   184.98396   151.86808   183.86239     0.76447     0.06987     0.32146
  Fock        0.00000     0.00000     0.00000     0.00000     0.00000     0.00000
  -------------------------------------------------------------------------------------
  Total       7.72188    17.65988     0.11163     0.31785     0.03267     1.17650
  in kB      16.97095    38.81244     0.24534     0.69856     0.07181     2.58568
  external pressure =       18.68 kB  Pullay stress =        0.00 kB


 VOLUME and BASIS-vectors are now :
 -----------------------------------------------------------------------------
  energy-cutoff  :      500.00
  volume of cell :      729.00
      direct lattice vectors                 reciprocal lattice vectors
     9.000000000  0.000000000  0.000000000     0.111111111  0.000000000  0.000000000
     0.000000000  9.000000000  0.000000000     0.000000000  0.111111111  0.000000000
     0.000000000  0.000000000  9.000000000     0.000000000  0.000000000  0.111111111

  length of vectors
     9.000000000  9.000000000  9.000000000     0.111111111  0.111111111  0.111111111


 FORCES acting on ions
    electron-ion (+dipol)            ewald-force                    non-local-force                 convergence-correction
 -----------------------------------------------------------------------------------------------
   -.144E+03 0.284E+01 -.838E+01   0.149E+03 -.273E+01 0.771E+01   -.791E+01 0.140E+00 0.657E-01   0.809E-04 0.195E-03 0.145E-03
   0.140E+03 -.272E+01 0.197E+02   -.146E+03 0.262E+01 -.213E+02   0.966E+01 -.165E+00 0.128E+01   -.549E-03 -.244E-03 0.225E-03
   -.201E+02 -.623E+02 -.625E+01   0.237E+02 0.708E+02 0.733E+01   0.779E+00 -.683E+01 -.333E+00   0.249E-04 -.421E-03 -.929E-05
   -.191E+02 0.625E+02 -.610E+01   0.225E+02 -.710E+02 0.715E+01   0.719E+00 0.686E+01 -.349E+00   0.105E-04 0.385E-03 -.814E-05
   0.207E+02 -.671E+02 0.509E+00   -.243E+02 0.840E+02 -.388E+00   -.886E+00 -.910E+01 -.348E+00   -.509E-04 -.638E-03 0.271E-04
   0.216E+02 0.668E+02 0.599E+00   -.254E+02 -.837E+02 -.485E+00   -.949E+00 0.907E+01 -.349E+00   -.578E-04 0.662E-03 0.264E-04
 -----------------------------------------------------------------------------------------------
   -.141E+01 0.243E-01 0.348E-01   0.142E-13 0.000E+00 0.233E-14   0.141E+01 -.226E-01 -.370E-01   -.542E-03 -.609E-04 0.406E-03
 
 
 POSITION                                       TOTAL-FORCE (eV/Angst)
 -----------------------------------------------------------------------------------
      5.18880      4.47081      4.58003        -2.883380      0.256341     -0.602557
      3.80001      4.50313      4.43236         3.440995     -0.258075     -0.391742
      5.18480      5.49368      4.65027         4.434099      1.653272      0.753402
      5.18480      3.44802      4.65027         4.171567     -1.680285      0.702018
      3.80601      5.42590      4.46211        -4.454914      7.794249     -0.226389
      3.80601      3.58024      4.46211        -4.708367     -7.765501     -0.234732
 -----------------------------------------------------------------------------------
    total drift:                                0.000904      0.001584     -0.001742


--------------------------------------------------------------------------------------------------------



  FREE ENERGIE OF THE ION-ELECTRON SYSTEM (eV)
  ---------------------------------------------------
  free  energy   TOTEN  =       -30.42636952 eV

  energy  without entropy=      -30.43850610  energy(sigma->0) =      -30.43041505
 


--------------------------------------------------------------------------------------------------------


    POTLOK:  cpu time      0.1396: real time      0.1402


--------------------------------------------------------------------------------------------------------


 stress matrix after NEB project (eV)
      7.72188      0.31785      1.17650
      0.31785     17.65988      0.03267
      1.17650      0.03267      0.11163
  FORCES: max atom, RMS     9.084428    6.159791
  FORCE total and by dimension   15.088345    7.794249
  Stress total and by dimension   19.351586   17.659885


--------------------------------------------------------------------------------------------------------


    WAVPRE:  cpu time      0.9891: real time      1.0612
    FEWALD:  cpu time      0.0005: real time      0.0005
    ORTHCH:  cpu time      0.0089: real time      0.0090
     LOOP+:  cpu time      4.7091: real time      5.0038


--------------------------------------- Ionic step        2  -------------------------------------------




--------------------------------------- Iteration      2(   1)  ---------------------------------------


    POTLOK:  cpu time      0.1601: real time      0.1609
    SETDIJ:  cpu time      0.0031: real time      0.0031
     EDDAV:  cpu time      0.0808: real time      0.0825
       DOS:  cpu time      0.0002: real time      0.0002
    CHARGE:  cpu time      0.0160: real time      0.0161
    MIXING:  cpu time      0.0028: real time      0.0029
    --------------------------------------------
      LOOP:  cpu time      0.2630: real time      0.2657

 eigenvalue-minimisations  :    28
 total energy-change (2. order) :-0.2636542E+00  (-0.2805477E+02)
 number of electron      11.9999990 magnetization 
 augmentation part        0.2568985 magnetization 

 Broyden mixing:
  rms(total) = 0.71430E+00    rms(broyden)= 0.71385E+00
  rms(prec ) = 0.90426E+00
  weight for this iteration     100.00

 Free energy of the ion-electron system (eV)
  ---------------------------------------------------
  alpha Z        PSCENC =         0.83102696
  Ewald energy   TEWEN  =       233.27908857
  -Hartree energ DENC   =      -508.87735152
  -exchange      EXHF   =         0.00000000
  -V(xc)+E(xc)   XCENC  =        39.48788005
  PAW double counting   =       184.23473159     -187.60576295
  entropy T*S    EENTRO =         0.01159581
  eigenvalues    EBANDS =      -139.47429526
  atomic energy  EATOM  =       347.42308926
  Solvation  Ediel_sol  =         0.00000000
  ---------------------------------------------------
  free energy    TOTEN  =       -30.68999749 eV

  energy without entropy =      -30.70159330  energy(sigma->0) =      -30.69386276


--------------------------------------------------------------------------------------------------------




--------------------------------------- Iteration      2(   2)  ---------------------------------------


    POTLOK:  cpu time      0.1195: real time      0.1202
    SETDIJ:  cpu time      0.0024: real time      0.0024
     EDDAV:  cpu time      0.0703: real time      0.0711
       DOS:  cpu time      0.0003: real time      0.0003
    CHARGE:  cpu time      0.0110: real time      0.0111
    MIXING:  cpu time      0.0029: real time      0.0029
    --------------------------------------------
      LOOP:  cpu time      0.2064: real time      0.2080

 eigenvalue-minimisations  :    36
 total energy-change (2. order) : 0.1548711E+00  (-0.7976428E+00)
 number of electron      11.9999987 magnetization 
 augmentation part        0.2887288 magnetization 

 Broyden mixing:
  rms(total) = 0.42368E+00    rms(broyden)= 0.42360E+00
  rms(prec ) = 0.51005E+00
  weight for this iteration     100.00

 eigenvalues of (default mixing * dielectric matrix)
  average eigenvalue GAMMA=   1.6211
  1.6211

 Free energy of the ion-electron system (eV)
  ---------------------------------------------------
  alpha Z        PSCENC =         0.83102696
  Ewald energy   TEWEN  =       233.27908857
  -Hartree energ DENC   =      -503.41269973
  -exchange      EXHF   =         0.00000000
  -V(xc)+E(xc)   XCENC  =        39.19249698
  PAW double counting   =       175.72346941     -179.04321391
  entropy T*S    EENTRO =         0.01159581
  eigenvalues    EBANDS =      -144.53997970
  atomic energy  EATOM  =       347.42308926
  Solvation  Ediel_sol  =         0.00000000
  ---------------------------------------------------
  free energy    TOTEN  =       -30.53512635 eV

  energy without entropy =      -30.54672216  energy(sigma->0) =      -30.53899162


--------------------------------------------------------------------------------------------------------




--------------------------------------- Iteration      2(   3)  ---------------------------------------


    POTLOK:  cpu time      0.1432: real time      0.1439
    SETDIJ:  cpu time      0.0026: real time      0.0026
     EDDAV:  cpu time      0.0815: real time      0.0829
       DOS:  cpu time      0.0002: real time      0.0002
    CHARGE:  cpu time      0.0141: real time      0.0142
    MIXING:  cpu time      0.0029: real time      0.0029
    --------------------------------------------
      LOOP:  cpu time      0.2444: real time      0.2467

 eigenvalue-minimisations  :    28
 total energy-change (2. order) : 0.2116355E+00  (-0.7527974E-01)
 number of electron      11.9999986 magnetization 
 augmentation part        0.2838865 magnetization 

 Broyden mixing:
  rms(total) = 0.16422E+00    rms(broyden)= 0.16419E+00
  rms(prec ) = 0.19564E+00
  weight for this iteration     100.00

 eigenvalues of (default mixing * dielectric matrix)
  average eigenvalue GAMMA=   1.5030
  0.9487  2.0572

 Free energy of the ion-electron system (eV)
  ---------------------------------------------------
  alpha Z        PSCENC =         0.83102696
  Ewald energy   TEWEN  =       233.27908857
  -Hartree energ DENC   =      -506.34737932
  -exchange      EXHF   =         0.00000000
  -V(xc)+E(xc)   XCENC  =        39.35180592
  PAW double counting   =       178.54461067     -181.85335103
  entropy T*S    EENTRO =         0.01159581
  eigenvalues    EBANDS =      -141.56397771
  atomic energy  EATOM  =       347.42308926
  Solvation  Ediel_sol  =         0.00000000
  ---------------------------------------------------
  free energy    TOTEN  =       -30.32349087 eV

  energy without entropy =      -30.33508668  energy(sigma->0) =      -30.32735614


--------------------------------------------------------------------------------------------------------




--------------------------------------- Iteration      2(   4)  ---------------------------------------


    POTLOK:  cpu time      0.1586: real time      0.1594
    SETDIJ:  cpu time      0.0028: real time      0.0029
     EDDAV:  cpu time      0.0825: real time      0.0834
       DOS:  cpu time      0.0002: real time      0.0002
    CHARGE:  cpu time      0.0131: real time      0.0132
    MIXING:  cpu time      0.0073: real time      0.0074
    --------------------------------------------
      LOOP:  cpu time      0.2646: real time      0.2666

 eigenvalue-minimisations  :    32
 total energy-change (2. order) : 0.1393268E-01  (-0.7959217E-02)
 number of electron      11.9999987 magnetization 
 augmentation part        0.2825823 magnetization 

 Broyden mixing:
  rms(total) = 0.50554E-01    rms(broyden)= 0.50551E-01
  rms(prec ) = 0.61134E-01
  weight for this iteration     100.00

 eigenvalues of (default mixing * dielectric matrix)
  average eigenvalue GAMMA=   1.4990
  2.3432  1.0769  1.0769

 Free energy of the ion-electron system (eV)
  ---------------------------------------------------
  alpha Z        PSCENC =         0.83102696
  Ewald energy   TEWEN  =       233.27908857
  -Hartree energ DENC   =      -506.70612880
  -exchange      EXHF   =         0.00000000
  -V(xc)+E(xc)   XCENC  =        39.39096871
  PAW double counting   =       178.70068834     -181.99979612
  entropy T*S    EENTRO =         0.01159581
  eigenvalues    EBANDS =      -141.24009091
  atomic energy  EATOM  =       347.42308926
  Solvation  Ediel_sol  =         0.00000000
  ---------------------------------------------------
  free energy    TOTEN  =       -30.30955819 eV

  energy without entropy =      -30.32115400  energy(sigma->0) =      -30.31342346


--------------------------------------------------------------------------------------------------------




--------------------------------------- Iteration      2(   5)  ---------------------------------------


    POTLOK:  cpu time      0.1409: real time      0.1417
    SETDIJ:  cpu time      0.0024: real time      0.0024
     EDDAV:  cpu time      0.0569: real time      0.0573
       DOS:  cpu time      0.0003: real time      0.0003
    CHARGE:  cpu time      0.0110: real time      0.0111
    MIXING:  cpu time      0.0049: real time      0.0050
    --------------------------------------------
      LOOP:  cpu time      0.2164: real time      0.2178

 eigenvalue-minimisations  :    28
 total energy-change (2. order) :-0.1791688E-02  (-0.1594868E-02)
 number of electron      11.9999987 magnetization 
 augmentation part        0.2826804 magnetization 

 Broyden mixing:
  rms(total) = 0.14218E-01    rms(broyden)= 0.14215E-01
  rms(prec ) = 0.19087E-01
  weight for this iteration     100.00

 eigenvalues of (default mixing * dielectric matrix)
  average eigenvalue GAMMA=   1.6490
  2.2171  2.2171  1.0809  1.0809

 Free energy of the ion-electron system (eV)
  ---------------------------------------------------
  alpha Z        PSCENC =         0.83102696
  Ewald energy   TEWEN  =       233.27908857
  -Hartree energ DENC   =      -506.53389351
  -exchange      EXHF   =         0.00000000
  -V(xc)+E(xc)   XCENC  =        39.39480578
  PAW double counting   =       178.27531707     -181.56857736
  entropy T*S    EENTRO =         0.01159581
  eigenvalues    EBANDS =      -141.42380247
  atomic energy  EATOM  =       347.42308926
  Solvation  Ediel_sol  =         0.00000000
  ---------------------------------------------------
  free energy    TOTEN  =       -30.31134988 eV

  energy without entropy =      -30.32294569  energy(sigma->0) =      -30.31521515


--------------------------------------------------------------------------------------------------------




--------------------------------------- Iteration      2(   6)  ---------------------------------------


    POTLOK:  cpu time      0.1584: real time      0.1592
    SETDIJ:  cpu time      0.0031: real time      0.0032
     EDDAV:  cpu time      0.0854: real time      0.0862
       DOS:  cpu time      0.0002: real time      0.0002
    CHARGE:  cpu time      0.0130: real time      0.0131
    MIXING:  cpu time      0.0040: real time      0.0040
    --------------------------------------------
      LOOP:  cpu time      0.2642: real time      0.2660

 eigenvalue-minimisations  :    32
 total energy-change (2. order) :-0.6911207E-03  (-0.3156523E-03)
 number of electron      11.9999987 magnetization 
 augmentation part        0.2828329 magnetization 

 Broyden mixing:
  rms(total) = 0.59946E-02    rms(broyden)= 0.59940E-02
  rms(prec ) = 0.92302E-02
  weight for this iteration     100.00

 eigenvalues of (default mixing * dielectric matrix)
  average eigenvalue GAMMA=   1.5246
  2.4795  2.0412  1.0698  1.0698  0.9625

 Free energy of the ion-electron system (eV)
  ---------------------------------------------------
  alpha Z        PSCENC =         0.83102696
  Ewald energy   TEWEN  =       233.27908857
  -Hartree energ DENC   =      -506.60362029
  -exchange      EXHF   =         0.00000000
  -V(xc)+E(xc)   XCENC  =        39.39834916
  PAW double counting   =       178.11388564     -181.40594490
  entropy T*S    EENTRO =         0.01159581
  eigenvalues    EBANDS =      -141.35951120
  atomic energy  EATOM  =       347.42308926
  Solvation  Ediel_sol  =         0.00000000
  ---------------------------------------------------
  free energy    TOTEN  =       -30.31204100 eV

  energy without entropy =      -30.32363681  energy(sigma->0) =      -30.31590627


--------------------------------------------------------------------------------------------------------




--------------------------------------- Iteration      2(   7)  ---------------------------------------


    POTLOK:  cpu time      0.1584: real time      0.1593
    SETDIJ:  cpu time      0.0027: real time      0.0027
     EDDAV:  cpu time      0.1039: real time      0.1044
       DOS:  cpu time      0.0002: real time      0.0002
    --------------------------------------------
      LOOP:  cpu time      0.2652: real time      0.2666

 eigenvalue-minimisations  :    40
 total energy-change (2. order) :-0.9328732E-04  (-0.3605572E-04)
 number of electron      11.9999987 magnetization 
 augmentation part        0.2828329 magnetization 

 Free energy of the ion-electron system (eV)
  ---------------------------------------------------
  alpha Z        PSCENC =         0.83102696
  Ewald energy   TEWEN  =       233.27908857
  -Hartree energ DENC   =      -506.67585383
  -exchange      EXHF   =         0.00000000
  -V(xc)+E(xc)   XCENC  =        39.40168016
  PAW double counting   =       178.13029927     -181.42204459
  entropy T*S    EENTRO =         0.01159581
  eigenvalues    EBANDS =      -141.29101589
  atomic energy  EATOM  =       347.42308926
  Solvation  Ediel_sol  =         0.00000000
  ---------------------------------------------------
  free energy    TOTEN  =       -30.31213428 eV

  energy without entropy =      -30.32373009  energy(sigma->0) =      -30.31599955


--------------------------------------------------------------------------------------------------------




 average (electrostatic) potential at core
  the test charge radii are     0.6991  0.5201
  (the norm of the test charge is              1.0000)
       1 -59.1199       2 -59.5527       3 -43.1844       4 -43.0814       5 -42.5000
       6 -42.5585
 
 
 
 E-fermi :  -7.0857     XC(G=0):  -1.5124     alpha+bet : -0.4269

 Fermi energy:        -7.0857020665

 k-point     1 :       0.0000    0.0000    0.0000
  band No.  band energies     occupation 
      1     -20.7815      2.00000
      2     -13.0895      2.00000
      3     -11.9902      2.00000
      4      -9.3502      2.00000
      5      -8.1800      2.00000
      6      -7.2541      2.00000
      7      -1.8173     -0.00000
      8      -0.5110      0.00000
      9      -0.3484      0.00000
     10       0.2686      0.00000
     11       0.6409      0.00000
     12       0.9041      0.00000


--------------------------------------------------------------------------------------------------------


 soft charge-density along one line, spin component           1
         0         1         2         3         4         5         6         7         8         9
 total charge-density along one line
 
 pseudopotential strength for first ion, spin component:           1
 10.307   0.021   0.000  -0.001  -0.012  -0.000   0.002   0.015
  0.021  -0.001   0.000  -0.000  -0.000  -0.000   0.000   0.000
  0.000   0.000  -4.267  -0.000   0.000  -0.024  -0.000  -0.000
 -0.001  -0.000  -0.000  -4.258  -0.006  -0.000  -0.023  -0.001
 -0.012  -0.000   0.000  -0.006  -4.305  -0.000  -0.001  -0.033
 -0.000  -0.000  -0.024  -0.000  -0.000  -0.773   0.000   0.000
  0.002   0.000  -0.000  -0.023  -0.001   0.000  -0.772  -0.000
  0.015   0.000  -0.000  -0.001  -0.033   0.000  -0.000  -0.774
 total augmentation occupancy for first ion, spin component:           1
  1.626  -1.415   0.009  -0.049  -0.352   0.003  -0.009  -0.107
 -1.415   1.466  -0.013   0.031   0.464  -0.004   0.011   0.158
  0.009  -0.013   1.095   0.002   0.004   0.211   0.000   0.001
 -0.049   0.031   0.002   1.039   0.066   0.000   0.139   0.020
 -0.352   0.464   0.004   0.066   1.655   0.001   0.020   0.262
  0.003  -0.004   0.211   0.000   0.001   0.044   0.000   0.000
 -0.009   0.011   0.000   0.139   0.020   0.000   0.019   0.005
 -0.107   0.158   0.001   0.020   0.262   0.000   0.005   0.051


------------------------ aborting loop because EDIFF is reached ----------------------------------------


    CHARGE:  cpu time      0.0135: real time      0.0136
    FORLOC:  cpu time      0.0089: real time      0.0090
    FORNL :  cpu time      0.0145: real time      0.0147
    STRESS:  cpu time      0.0741: real time      0.0745
    FORHAR:  cpu time      0.0340: real time      0.0342
    MIXING:  cpu time      0.0040: real time      0.0040
    OFIELD:  cpu time      0.0000: real time      0.0000

  FORCE on cell =-STRESS in cart. coord.  units (eV):
  Direction    XX          YY          ZZ          XY          YZ          ZX
  --------------------------------------------------------------------------------------
  Alpha Z     0.83103     0.83103     0.83103
  Ewald     208.24068   129.86245  -104.82416     0.08420     0.03540    40.07174
  Hartree   216.73470   196.25141    93.94719    -0.26631    -0.04322    14.47492
  E(xc)     -43.22675   -42.36165   -45.35778     0.00882     0.00080     0.28804
  Local    -505.42904  -427.50787  -109.54940     0.17788     0.03048   -49.18479
  n-local   -17.62311   -15.17063   -16.06603    -0.02793    -0.00593    -0.20726
  augment    -0.75586    -0.33649    -0.25228     0.00029    -0.00010    -0.06612
  Kinetic   176.91761   141.10842   181.71781    -0.09005    -0.00226    -0.71208
  Fock        0.00000     0.00000     0.00000     0.00000     0.00000     0.00000
  -------------------------------------------------------------------------------------
  Total      35.68925   -17.32334     0.44638    -0.11310     0.01516     4.66445
  in kB      78.43691   -38.07278     0.98104    -0.24857     0.03332    10.25140
  external pressure =       13.78 kB  Pullay stress =        0.00 kB


 VOLUME and BASIS-vectors are now :
 -----------------------------------------------------------------------------
  energy-cutoff  :      500.00
  volume of cell :      729.00
      direct lattice vectors                 reciprocal lattice vectors
     9.000000000  0.000000000  0.000000000     0.111111111  0.000000000  0.000000000
     0.000000000  9.000000000  0.000000000     0.000000000  0.111111111  0.000000000
     0.000000000  0.000000000  9.000000000     0.000000000  0.000000000  0.111111111

  length of vectors
     9.000000000  9.000000000  9.000000000     0.111111111  0.111111111  0.111111111


 FORCES acting on ions
    electron-ion (+dipol)            ewald-force                    non-local-force                 convergence-correction
 -----------------------------------------------------------------------------------------------
   -.164E+03 0.227E+01 -.133E+02   0.187E+03 -.255E+01 0.158E+02   0.496E+01 -.190E+00 0.162E+01   0.730E-01 -.465E-03 0.139E-01
   0.177E+03 -.220E+01 0.280E+02   -.199E+03 0.229E+01 -.309E+02   -.685E+01 0.838E-01 -.126E+00   -.152E-01 -.308E-03 0.568E-02
   -.283E+02 -.518E+02 -.778E+01   0.312E+02 0.540E+02 0.826E+01   -.100E+01 -.474E+01 -.544E+00   0.142E-01 0.262E-02 0.277E-02
   -.270E+02 0.514E+02 -.742E+01   0.296E+02 -.530E+02 0.781E+01   -.872E+00 0.451E+01 -.494E+00   0.136E-01 -.267E-02 0.271E-02
   0.221E+02 -.438E+02 0.161E+00   -.238E+02 0.423E+02 -.522E+00   0.445E+00 -.279E+01 -.134E+00   -.334E-02 0.576E-02 0.148E-02
   0.233E+02 0.444E+02 0.156E+00   -.250E+02 -.430E+02 -.522E+00   0.507E+00 0.294E+01 -.144E+00   -.403E-02 -.597E-02 0.144E-02
 -----------------------------------------------------------------------------------------------
   0.273E+01 0.194E+00 -.209E+00   -.249E-13 0.000E+00 0.122E-14   -.281E+01 -.194E+00 0.179E+00   0.782E-01 -.103E-02 0.280E-01
 
 
 POSITION                                       TOTAL-FORCE (eV/Angst)
 -----------------------------------------------------------------------------------
      5.04970      4.48317      4.55096        27.308240     -0.471979      4.173959
      3.96601      4.49068      4.41346       -28.605708      0.177630     -3.003992
      5.39871      5.57344      4.68661         1.900662     -2.525469     -0.067719
      5.38605      3.36695      4.68413         1.773769      2.857167     -0.100569
      3.59109      5.80191      4.45119        -1.165316     -4.378569     -0.493124
      3.57886      3.20561      4.45079        -1.211646      4.341220     -0.508555
 -----------------------------------------------------------------------------------
    total drift:                               -0.004339     -0.000313     -0.002898


--------------------------------------------------------------------------------------------------------



  FREE ENERGIE OF THE ION-ELECTRON SYSTEM (eV)
  ---------------------------------------------------
  free  energy   TOTEN  =       -30.31213428 eV

  energy  without entropy=      -30.32373009  energy(sigma->0) =      -30.31599955
 
 d Force =-0.2416592E-01[-0.110E+02, 0.110E+02]  d Energy =-0.1142352E+00 0.901E-01
 d Force = 0.2813389E+02[ 0.570E+01, 0.506E+02]  d Ewald  = 0.2978836E+02-0.165E+01


--------------------------------------------------------------------------------------------------------


    POTLOK:  cpu time      0.1657: real time      0.1664


--------------------------------------------------------------------------------------------------------


 stress matrix after NEB project (eV)
     35.68925     -0.11310      4.66445
     -0.11310    -17.32334      0.01516
      4.66445      0.01516      0.44638
  FORCES: max atom, RMS    28.763555   16.600138
  FORCE total and by dimension   40.661868   28.605708
  Stress total and by dimension   40.218901   35.689251
 Steepest descent step on ions:
 trial-energy change:    0.114235  1 .order    0.024166  -10.982833   11.031165
[...]
  0.021  -0.001   0.000  -0.000  -0.000  -0.000   0.000   0.000
 -0.000   0.000  -4.265   0.000   0.000  -0.017   0.000   0.000
 -0.000  -0.000   0.000  -4.259  -0.001   0.000  -0.014  -0.001
 -0.000  -0.000   0.000  -0.001  -4.270   0.000  -0.001  -0.018
 -0.000  -0.000  -0.017   0.000   0.000  -0.773   0.000   0.000
  0.000   0.000   0.000  -0.014  -0.001   0.000  -0.773  -0.000
  0.001   0.000   0.000  -0.001  -0.018   0.000  -0.000  -0.773
 total augmentation occupancy for first ion, spin component:           1
  1.509  -1.187   0.001  -0.007  -0.049   0.000  -0.004  -0.027
 -1.187   1.011  -0.001   0.016   0.113  -0.001   0.007   0.050
  0.001  -0.001   1.171  -0.000  -0.001   0.202  -0.000  -0.000
 -0.007   0.016  -0.000   0.898   0.050  -0.000   0.098   0.018
 -0.049   0.113  -0.001   0.050   1.276  -0.000   0.018   0.239
  0.000  -0.001   0.202  -0.000  -0.000   0.036  -0.000  -0.000
 -0.004   0.007  -0.000   0.098   0.018  -0.000   0.011   0.005
 -0.027   0.050  -0.000   0.018   0.239  -0.000   0.005   0.048


------------------------ aborting loop because EDIFF is reached ----------------------------------------


    CHARGE:  cpu time      0.0091: real time      0.0092
    FORLOC:  cpu time      0.0079: real time      0.0079
    FORNL :  cpu time      0.0128: real time      0.0130
    STRESS:  cpu time      0.0683: real time      0.0686
    FORHAR:  cpu time      0.0301: real time      0.0303
    MIXING:  cpu time      0.0022: real time      0.0023
    OFIELD:  cpu time      0.0000: real time      0.0000

  FORCE on cell =-STRESS in cart. coord.  units (eV):
  Direction    XX          YY          ZZ          XY          YZ          ZX
  --------------------------------------------------------------------------------------
  Alpha Z     0.83103     0.83103     0.83103
  Ewald     231.03628    85.86118  -106.05366    -1.44054    -0.19283    41.31924
  Hartree   246.69056   155.05193    87.57560    -0.82102    -0.10898    18.14395
  E(xc)     -42.93530   -43.20268   -45.48212    -0.00428    -0.00063     0.33650
  Local    -574.37502  -336.73876   -98.90444     2.25868     0.30089   -56.72582
  n-local   -17.89714   -18.44222   -16.60339    -0.00856    -0.00101    -0.17099
  augment    -0.22001    -0.22861    -0.09288    -0.00019    -0.00005    -0.01684
  Kinetic   156.68299   156.63373   178.63256     0.03814     0.00555    -2.89577
  Fock        0.00000     0.00000     0.00000     0.00000     0.00000     0.00000
  -------------------------------------------------------------------------------------
  Total      -0.18662    -0.23440    -0.09731     0.02223     0.00294    -0.00974
  in kB      -0.41016    -0.51516    -0.21386     0.04885     0.00647    -0.02140
  external pressure =       -0.38 kB  Pullay stress =        0.00 kB


 VOLUME and BASIS-vectors are now :
 -----------------------------------------------------------------------------
  energy-cutoff  :      500.00
  volume of cell :      729.00
      direct lattice vectors                 reciprocal lattice vectors
     9.000000000  0.000000000  0.000000000     0.111111111  0.000000000  0.000000000
     0.000000000  9.000000000  0.000000000     0.000000000  0.111111111  0.000000000
     0.000000000  0.000000000  9.000000000     0.000000000  0.000000000  0.111111111

  length of vectors
     9.000000000  9.000000000  9.000000000     0.111111111  0.111111111  0.111111111


 FORCES acting on ions
    electron-ion (+dipol)            ewald-force                    non-local-force                 convergence-correction
 -----------------------------------------------------------------------------------------------
   -.971E+02 0.106E+01 -.130E+02   0.975E+02 -.107E+01 0.131E+02   -.451E+00 0.102E-01 -.677E-01   -.772E-02 0.164E-02 0.291E-02
   0.969E+02 -.109E+01 0.123E+02   -.973E+02 0.110E+01 -.124E+02   0.399E+00 -.115E-01 0.370E-01   0.101E-01 -.170E-02 0.773E-02
   -.366E+02 -.463E+02 -.467E+01   0.398E+02 0.513E+02 0.507E+01   -.316E+01 -.509E+01 -.392E+00   -.601E-03 -.577E-03 0.307E-03
   -.357E+02 0.470E+02 -.454E+01   0.388E+02 -.521E+02 0.492E+01   -.306E+01 0.514E+01 -.377E+00   0.577E-04 -.151E-03 0.318E-03
   0.358E+02 -.469E+02 0.487E+01   -.389E+02 0.520E+02 -.528E+01   0.308E+01 -.513E+01 0.422E+00   0.375E-03 -.297E-03 0.824E-03
   0.367E+02 0.462E+02 0.497E+01   -.399E+02 -.513E+02 -.540E+01   0.318E+01 0.508E+01 0.432E+00   0.109E-02 0.992E-03 0.962E-03
 -----------------------------------------------------------------------------------------------
   0.630E-02 -.316E-02 -.702E-01   0.000E+00 0.000E+00 0.178E-14   -.101E-01 0.298E-02 0.547E-01   0.330E-02 -.962E-04 0.130E-01
 
 
 POSITION                                       TOTAL-FORCE (eV/Angst)
 -----------------------------------------------------------------------------------
      5.15709      4.48005      4.62760        -0.059777      0.005377     -0.025999
      3.83448      4.49399      4.45594         0.038769     -0.004572     -0.015313
      5.72919      5.39688      4.69893         0.006736     -0.047578      0.010100
      5.71152      3.55197      4.69643        -0.002268      0.053934      0.010169
      3.27750      5.41952      4.38006         0.014772     -0.023542      0.011846
      3.26064      3.57936      4.37818         0.001767      0.016381      0.009197
 -----------------------------------------------------------------------------------
    total drift:                               -0.000467     -0.000275     -0.002399


--------------------------------------------------------------------------------------------------------



  FREE ENERGIE OF THE ION-ELECTRON SYSTEM (eV)
  ---------------------------------------------------
  free  energy   TOTEN  =       -36.48068976 eV

  energy  without entropy=      -36.49228557  energy(sigma->0) =      -36.48455503
 
 d Force = 0.5060774E-04[-0.418E-05, 0.105E-03]  d Energy = 0.4991820E-04 0.690E-06
 d Force = 0.1137115E+00[ 0.114E+00, 0.114E+00]  d Ewald  = 0.1137114E+00 0.523E-07


--------------------------------------------------------------------------------------------------------


    POTLOK:  cpu time      0.1538: real time      0.1545


--------------------------------------------------------------------------------------------------------


 stress matrix after NEB project (eV)
     -0.18662      0.02223     -0.00974
      0.02223     -0.23440      0.00294
     -0.00974      0.00294     -0.09731
  FORCES: max atom, RMS     0.065407    0.046068
  FORCE total and by dimension    0.112844    0.059777
  Stress total and by dimension    0.316916    0.234400


--------------------------------------------------------------------------------------------------------


    WAVPRE:  cpu time      0.0186: real time      0.0189
    FEWALD:  cpu time      0.0003: real time      0.0003
    ORTHCH:  cpu time      0.0070: real time      0.0070
     LOOP+:  cpu time      0.8066: real time      0.8111


--------------------------------------- Ionic step       28  -------------------------------------------




--------------------------------------- Iteration     28(   1)  ---------------------------------------


    POTLOK:  cpu time      0.1582: real time      0.1590
    SETDIJ:  cpu time      0.0026: real time      0.0027
     EDDAV:  cpu time      0.0637: real time      0.0640
       DOS:  cpu time      0.0003: real time      0.0003
    CHARGE:  cpu time      0.0126: real time      0.0127
    MIXING:  cpu time      0.0023: real time      0.0023
    --------------------------------------------
      LOOP:  cpu time      0.2398: real time      0.2410

 eigenvalue-minimisations  :    24
 total energy-change (2. order) :-0.1352236E-03  (-0.3296341E-03)
 number of electron      12.0000010 magnetization 
 augmentation part        0.2750803 magnetization 

 Broyden mixing:
  rms(total) = 0.14076E-02    rms(broyden)= 0.14048E-02
  rms(prec ) = 0.19068E-02
  weight for this iteration     100.00

 Free energy of the ion-electron system (eV)
  ---------------------------------------------------
  alpha Z        PSCENC =         0.83102696
  Ewald energy   TEWEN  =       211.00543658
  -Hartree energ DENC   =      -489.43820104
  -exchange      EXHF   =         0.00000000
  -V(xc)+E(xc)   XCENC  =        39.48666998
  PAW double counting   =       158.49053806     -161.80390489
  entropy T*S    EENTRO =         0.01159581
  eigenvalues    EBANDS =      -142.48707388
  atomic energy  EATOM  =       347.42308926
  Solvation  Ediel_sol  =         0.00000000
  ---------------------------------------------------
  free energy    TOTEN  =       -36.48082315 eV

  energy without entropy =      -36.49241896  energy(sigma->0) =      -36.48468842


--------------------------------------------------------------------------------------------------------




--------------------------------------- Iteration     28(   2)  ---------------------------------------


    POTLOK:  cpu time      0.1618: real time      0.1626
    SETDIJ:  cpu time      0.0024: real time      0.0024
     EDDAV:  cpu time      0.0612: real time      0.0616
       DOS:  cpu time      0.0002: real time      0.0002
    --------------------------------------------
      LOOP:  cpu time      0.2256: real time      0.2269

 eigenvalue-minimisations  :    32
 total energy-change (2. order) :-0.1756549E-05  (-0.3878003E-05)
 number of electron      12.0000010 magnetization 
 augmentation part        0.2750803 magnetization 

 Free energy of the ion-electron system (eV)
  ---------------------------------------------------
  alpha Z        PSCENC =         0.83102696
  Ewald energy   TEWEN  =       211.00543658
  -Hartree energ DENC   =      -489.46371523
  -exchange      EXHF   =         0.00000000
  -V(xc)+E(xc)   XCENC  =        39.48786371
  PAW double counting   =       158.55276148     -161.86618422
  entropy T*S    EENTRO =         0.01159581
  eigenvalues    EBANDS =      -142.46269925
  atomic energy  EATOM  =       347.42308926
  Solvation  Ediel_sol  =         0.00000000
  ---------------------------------------------------
  free energy    TOTEN  =       -36.48082491 eV

  energy without entropy =      -36.49242072  energy(sigma->0) =      -36.48469018


--------------------------------------------------------------------------------------------------------




 average (electrostatic) potential at core
  the test charge radii are     0.6991  0.5201
  (the norm of the test charge is              1.0000)
       1 -58.9614       2 -58.9607       3 -43.1943       4 -43.1959       5 -43.1977
       6 -43.1975
 
 
 
 E-fermi :  -6.6218     XC(G=0):  -1.3704     alpha+bet : -0.4269

 Fermi energy:        -6.6217522429

 k-point     1 :       0.0000    0.0000    0.0000
  band No.  band energies     occupation 
      1     -19.0518      2.00000
      2     -14.5358      2.00000
      3     -11.6560      2.00000
      4     -10.3836      2.00000
      5      -8.8141      2.00000
      6      -6.7901      2.00000
      7      -1.1195      0.00000
      8      -0.7485      0.00000
      9       0.5889      0.00000
     10       0.6221      0.00000
     11       0.8992      0.00000
     12       1.1176      0.00000


--------------------------------------------------------------------------------------------------------


 soft charge-density along one line, spin component           1
         0         1         2         3         4         5         6         7         8         9
 total charge-density along one line
 
 pseudopotential strength for first ion, spin component:           1
 10.286   0.021  -0.000  -0.000  -0.000  -0.000   0.000   0.001
  0.021  -0.001   0.000  -0.000  -0.000  -0.000   0.000   0.000
 -0.000   0.000  -4.265   0.000   0.000  -0.017   0.000   0.000
 -0.000  -0.000   0.000  -4.259  -0.002   0.000  -0.014  -0.001
 -0.000  -0.000   0.000  -0.002  -4.270   0.000  -0.001  -0.018
 -0.000  -0.000  -0.017   0.000   0.000  -0.773   0.000   0.000
  0.000   0.000   0.000  -0.014  -0.001   0.000  -0.773  -0.000
  0.001   0.000   0.000  -0.001  -0.018   0.000  -0.000  -0.773
 total augmentation occupancy for first ion, spin component:           1
  1.510  -1.188   0.001  -0.007  -0.049   0.000  -0.004  -0.028
 -1.188   1.012  -0.002   0.016   0.115  -0.001   0.007   0.051
  0.001  -0.002   1.172  -0.000  -0.001   0.202  -0.000  -0.000
 -0.007   0.016  -0.000   0.899   0.050  -0.000   0.098   0.019
 -0.049   0.115  -0.001   0.050   1.277  -0.000   0.019   0.240
  0.000  -0.001   0.202  -0.000  -0.000   0.036  -0.000  -0.000
 -0.004   0.007  -0.000   0.098   0.019  -0.000   0.011   0.005
 -0.028   0.051  -0.000   0.019   0.240  -0.000   0.005   0.048


------------------------ aborting loop because EDIFF is reached ----------------------------------------


    CHARGE:  cpu time      0.0091: real time      0.0092
    FORLOC:  cpu time      0.0080: real time      0.0080
    FORNL :  cpu time      0.0134: real time      0.0136
    STRESS:  cpu time      0.0671: real time      0.0674
    FORHAR:  cpu time      0.0339: real time      0.0340
    MIXING:  cpu time      0.0035: real time      0.0036
    OFIELD:  cpu time      0.0000: real time      0.0000

  FORCE on cell =-STRESS in cart. coord.  units (eV):
  Direction    XX          YY          ZZ          XY          YZ          ZX
  --------------------------------------------------------------------------------------
  Alpha Z     0.83103     0.83103     0.83103
  Ewald     231.20341    85.84678  -106.04488    -1.38795    -0.18650    41.36149
  Hartree   246.76086   155.10900    87.63576    -0.79970    -0.10637    18.15669
  E(xc)     -42.93925   -43.20811   -45.48667    -0.00367    -0.00055     0.33663
  Local    -574.57626  -336.78499   -98.98035     2.18773     0.29231   -56.77411
  n-local   -17.90866   -18.45364   -16.61378    -0.00680    -0.00082    -0.17114
  augment    -0.22141    -0.22929    -0.09341    -0.00018    -0.00004    -0.01697
  Kinetic   156.72068   156.69540   178.68008     0.02102     0.00337    -2.89784
  Fock        0.00000     0.00000     0.00000     0.00000     0.00000     0.00000
  -------------------------------------------------------------------------------------
  Total      -0.12960    -0.19382    -0.07222     0.01044     0.00139    -0.00525
  in kB      -0.28484    -0.42597    -0.15873     0.02295     0.00305    -0.01154
  external pressure =       -0.29 kB  Pullay stress =        0.00 kB


 VOLUME and BASIS-vectors are now :
 -----------------------------------------------------------------------------
  energy-cutoff  :      500.00
  volume of cell :      729.00
      direct lattice vectors                 reciprocal lattice vectors
     9.000000000  0.000000000  0.000000000     0.111111111  0.000000000  0.000000000
     0.000000000  9.000000000  0.000000000     0.000000000  0.111111111  0.000000000
     0.000000000  0.000000000  9.000000000     0.000000000  0.000000000  0.111111111

  length of vectors
     9.000000000  9.000000000  9.000000000     0.111111111  0.111111111  0.111111111


 FORCES acting on ions
    electron-ion (+dipol)            ewald-force                    non-local-force                 convergence-correction
 -----------------------------------------------------------------------------------------------
   -.972E+02 0.101E+01 -.130E+02   0.976E+02 -.102E+01 0.130E+02   -.427E+00 0.681E-02 -.649E-01   0.133E-01 0.924E-03 0.756E-02
   0.971E+02 -.104E+01 0.124E+02   -.975E+02 0.105E+01 -.125E+02   0.403E+00 -.849E-02 0.430E-01   -.121E-01 -.145E-02 0.559E-02
   -.367E+02 -.463E+02 -.470E+01   0.398E+02 0.513E+02 0.510E+01   -.317E+01 -.508E+01 -.396E+00   0.196E-02 0.155E-02 0.877E-03
   -.358E+02 0.470E+02 -.457E+01   0.388E+02 -.521E+02 0.496E+01   -.306E+01 0.514E+01 -.381E+00   0.235E-02 -.213E-02 0.873E-03
   0.358E+02 -.470E+02 0.484E+01   -.389E+02 0.521E+02 -.524E+01   0.308E+01 -.514E+01 0.416E+00   -.223E-02 0.177E-02 0.540E-03
   0.367E+02 0.463E+02 0.494E+01   -.399E+02 -.513E+02 -.536E+01   0.317E+01 0.508E+01 0.427E+00   -.165E-02 -.117E-02 0.670E-03
 -----------------------------------------------------------------------------------------------
   0.240E-02 -.130E-02 -.628E-01   0.142E-13 0.000E+00 0.178E-14   -.380E-02 0.191E-02 0.444E-01   0.162E-02 -.494E-03 0.161E-01
 
 
 POSITION                                       TOTAL-FORCE (eV/Angst)
 -----------------------------------------------------------------------------------
      5.15625      4.48023      4.62717        -0.019654      0.002766     -0.018668
      3.83441      4.49382      4.45539         0.015143     -0.002611     -0.012650
      5.72939      5.39621      4.69914         0.000705     -0.038952      0.007922
      5.71133      3.55288      4.69662        -0.002746      0.041849      0.008594
      3.27819      5.41968      4.38040         0.006443     -0.022666      0.008230
      3.26085      3.57895      4.37843         0.000109      0.019614      0.006571
 -----------------------------------------------------------------------------------
    total drift:                                0.000217      0.000118     -0.002301


--------------------------------------------------------------------------------------------------------



  FREE ENERGIE OF THE ION-ELECTRON SYSTEM (eV)
  ---------------------------------------------------
  free  energy   TOTEN  =       -36.48082491 eV

  energy  without entropy=      -36.49242072  energy(sigma->0) =      -36.48469018
 
 d Force = 0.1290771E-03[ 0.965E-04, 0.162E-03]  d Energy = 0.1351468E-03-0.607E-05
 d Force =-0.1615081E+00[-0.161E+00,-0.162E+00]  d Ewald  =-0.1615081E+00 0.162E-07


--------------------------------------------------------------------------------------------------------


    POTLOK:  cpu time      0.1625: real time      0.1633


--------------------------------------------------------------------------------------------------------


 stress matrix after NEB project (eV)
     -0.12960      0.01044     -0.00525
      0.01044     -0.19382      0.00139
     -0.00525      0.00139     -0.07222
  FORCES: max atom, RMS     0.042810    0.030558
  FORCE total and by dimension    0.074851    0.041849
  Stress total and by dimension    0.244655    0.193818
 Conjugate gradient step on ions:
 trial-energy change:   -0.000135  1 .order   -0.000129   -0.000162   -0.000096
  (g-gl).g = 0.605E-03      g.g   = 0.614E-03  gl.gl    = 0.200E-02
 g(Force)  = 0.614E-03   g(Stress)= 0.000E+00 ortho     =-0.294E-04
 gamma     =   0.30192
 trial     =   0.26702
 opt step  =   0.66240  (harmonic =   0.66240) maximal distance =0.00225910
 next E    =   -36.480890   (d E  =  -0.00020)


--------------------------------------------------------------------------------------------------------


  
 reached required accuracy - stopping structural energy minimisation
 writing wavefunctions
     LOOP+:  cpu time      0.7847: real time      0.7927
    4ORBIT:  cpu time      0.0000: real time      0.0000

 total amount of memory used by VASP MPI-rank0    63407. kBytes
=======================================================================

   base      :      30000. kBytes
   nonl-proj :       4169. kBytes
   fftplans  :       9085. kBytes
   grid      :      19240. kBytes
   one-center:         18. kBytes
   wavefun   :        895. kBytes
 
  
  
 General timing and accounting informations for this job:
 ========================================================
  
                  Total CPU time used (sec):       48.085
                            User time (sec):       44.139
                          System time (sec):        3.946
                         Elapsed time (sec):       50.003
  
                   Maximum memory used (kb):      199352.
                   Average memory used (kb):          N/A
  
                          Minor page faults:       113921
                          Major page faults:            0
                 Voluntary context switches:         4362
