PROCAR lm decomposed
# of k-points:    1         # of bands:   12         # of ions:    6

 k-point     1 :    0.00000000 0.00000000 0.00000000     weight = 1.00000000

band     1 # energy  -18.52648980 # occ.  2.00000000
 
ion      s     py     pz     px    dxy    dyz    dz2    dxz  x2-y2    tot
    1  0.279  0.000  0.000  0.025  0.000  0.000  0.000  0.000  0.000  0.305
    2  0.279  0.000  0.000  0.025  0.000  0.000  0.000  0.000  0.000  0.305
    3  0.026  0.002  0.000  0.001  0.000  0.000  0.000  0.000  0.000  0.029
    4  0.026  0.002  0.000  0.001  0.000  0.000  0.000  0.000  0.000  0.029
    5  0.026  0.002  0.000  0.001  0.000  0.000  0.000  0.000  0.000  0.029
    6  0.026  0.002  0.000  0.001  0.000  0.000  0.000  0.000  0.000  0.029
tot    0.665  0.007  0.001  0.055  0.000  0.000  0.000  0.000  0.000  0.727
 
band     2 # energy  -13.92122298 # occ.  2.00000000
 
ion      s     py     pz     px    dxy    dyz    dz2    dxz  x2-y2    tot
    1  0.156  0.000  0.001  0.047  0.000  0.000  0.000  0.000  0.000  0.204
    2  0.156  0.000  0.001  0.047  0.000  0.000  0.000  0.000  0.000  0.204
    3  0.070  0.005  0.000  0.001  0.000  0.000  0.000  0.000  0.000  0.076
    4  0.070  0.005  0.000  0.001  0.000  0.000  0.000  0.000  0.000  0.076
    5  0.071  0.005  0.000  0.001  0.000  0.000  0.000  0.000  0.000  0.076
    6  0.070  0.005  0.000  0.001  0.000  0.000  0.000  0.000  0.000  0.075
tot    0.593  0.020  0.002  0.096  0.000  0.000  0.000  0.000  0.000  0.710
 
band     3 # energy  -11.18824506 # occ.  2.00000000
 
ion      s     py     pz     px    dxy    dyz    dz2    dxz  x2-y2    tot
    1  0.000  0.176  0.000  0.000  0.000  0.000  0.000  0.000  0.000  0.176
    2  0.000  0.176  0.000  0.000  0.000  0.000  0.000  0.000  0.000  0.176
    3  0.074  0.002  0.000  0.003  0.000  0.000  0.000  0.000  0.000  0.078
    4  0.073  0.002  0.000  0.003  0.000  0.000  0.000  0.000  0.000  0.077
    5  0.074  0.002  0.000  0.003  0.000  0.000  0.000  0.000  0.000  0.078
    6  0.074  0.002  0.000  0.003  0.000  0.000  0.000  0.000  0.000  0.078
tot    0.294  0.358  0.000  0.010  0.000  0.000  0.000  0.000  0.000  0.663
 
band     4 # energy   -9.87521820 # occ.  2.00000000
 
ion      s     py     pz     px    dxy    dyz    dz2    dxz  x2-y2    tot
    1  0.002  0.000  0.005  0.267  0.000  0.000  0.000  0.000  0.000  0.273
    2  0.002  0.000  0.005  0.267  0.000  0.000  0.000  0.000  0.000  0.273
    3  0.046  0.003  0.000  0.000  0.000  0.000  0.000  0.000  0.000  0.049
    4  0.047  0.003  0.000  0.000  0.000  0.000  0.000  0.000  0.000  0.050
    5  0.047  0.003  0.000  0.000  0.000  0.000  0.000  0.000  0.000  0.050
    6  0.046  0.003  0.000  0.000  0.000  0.000  0.000  0.000  0.000  0.050
tot    0.189  0.013  0.009  0.535  0.000  0.000  0.000  0.000  0.000  0.746
 
band     5 # energy   -8.22904248 # occ.  2.00000000
 
ion      s     py     pz     px    dxy    dyz    dz2    dxz  x2-y2    tot
    1  0.000  0.134  0.000  0.000  0.000  0.000  0.000  0.000  0.000  0.134
    2  0.000  0.134  0.000  0.000  0.000  0.000  0.000  0.000  0.000  0.134
    3  0.105  0.002  0.000  0.002  0.000  0.000  0.000  0.000  0.000  0.109
    4  0.105  0.002  0.000  0.002  0.000  0.000  0.000  0.000  0.000  0.109
    5  0.105  0.002  0.000  0.002  0.000  0.000  0.000  0.000  0.000  0.108
    6  0.106  0.002  0.000  0.002  0.000  0.000  0.000  0.000  0.000  0.109
tot    0.420  0.275  0.000  0.007  0.000  0.000  0.000  0.000  0.000  0.702
 
band     6 # energy   -6.49916034 # occ.  2.00000000
 
ion      s     py     pz     px    dxy    dyz    dz2    dxz  x2-y2    tot
    1  0.000  0.000  0.218  0.004  0.000  0.000  0.000  0.000  0.000  0.222
    2  0.000  0.000  0.218  0.004  0.000  0.000  0.000  0.000  0.000  0.222
    3  0.000  0.000  0.003  0.000  0.000  0.000  0.000  0.000  0.000  0.003
    4  0.000  0.000  0.003  0.000  0.000  0.000  0.000  0.000  0.000  0.003
    5  0.000  0.000  0.003  0.000  0.000  0.000  0.000  0.000  0.000  0.003
    6  0.000  0.000  0.003  0.000  0.000  0.000  0.000  0.000  0.000  0.003
tot    0.000  0.000  0.448  0.008  0.000  0.000  0.000  0.000  0.000  0.456
 
band     7 # energy   -0.80496523 # occ.  0.00000000
 
ion      s     py     pz     px    dxy    dyz    dz2    dxz  x2-y2    tot
    1  0.000  0.000  0.182  0.003  0.000  0.000  0.000  0.000  0.000  0.185
    2  0.000  0.000  0.182  0.003  0.000  0.000  0.000  0.000  0.000  0.185
    3  0.000  0.000  0.006  0.000  0.000  0.000  0.000  0.000  0.000  0.006
    4  0.000  0.000  0.006  0.000  0.000  0.000  0.000  0.000  0.000  0.006
    5  0.000  0.000  0.006  0.000  0.000  0.000  0.000  0.000  0.000  0.006
    6  0.000  0.000  0.006  0.000  0.000  0.000  0.000  0.000  0.000  0.006
tot    0.000  0.000  0.389  0.006  0.000  0.000  0.000  0.000  0.000  0.395
 
band     8 # energy   -0.45290242 # occ.  0.00000000
 
ion      s     py     pz     px    dxy    dyz    dz2    dxz  x2-y2    tot
    1  0.008  0.000  0.000  0.008  0.000  0.000  0.000  0.000  0.000  0.016
    2  0.008  0.000  0.000  0.008  0.000  0.000  0.000  0.000  0.000  0.016
    3  0.000  0.002  0.000  0.000  0.000  0.000  0.000  0.000  0.000  0.002
    4  0.000  0.002  0.000  0.000  0.000  0.000  0.000  0.000  0.000  0.002
    5  0.000  0.002  0.000  0.000  0.000  0.000  0.000  0.000  0.000  0.002
    6  0.000  0.002  0.000  0.000  0.000  0.000  0.000  0.000  0.000  0.002
tot    0.016  0.007  0.000  0.016  0.000  0.000  0.000  0.000  0.000  0.039
 
band     9 # energy    0.93479071 # occ.  0.00000000
 
ion      s     py     pz     px    dxy    dyz    dz2    dxz  x2-y2    tot
    1  0.000  0.031  0.000  0.000  0.000  0.000  0.000  0.000  0.000  0.031
    2  0.000  0.031  0.000  0.000  0.000  0.000  0.000  0.000  0.000  0.031
    3  0.001  0.002  0.000  0.002  0.000  0.000  0.000  0.000  0.000  0.004
    4  0.001  0.002  0.000  0.001  0.000  0.000  0.000  0.000  0.000  0.004
    5  0.001  0.002  0.000  0.001  0.000  0.000  0.000  0.000  0.000  0.004
    6  0.001  0.002  0.000  0.002  0.000  0.000  0.000  0.000  0.000  0.004
tot    0.002  0.068  0.000  0.006  0.000  0.000  0.000  0.000  0.000  0.076
 
band    10 # energy    1.00565081 # occ.  0.00000000
 
ion      s     py     pz     px    dxy    dyz    dz2    dxz  x2-y2    tot
    1  0.022  0.000  0.000  0.003  0.000  0.000  0.000  0.000  0.000  0.025
    2  0.022  0.000  0.000  0.003  0.000  0.000  0.000  0.000  0.000  0.025
    3  0.000  0.002  0.000  0.001  0.000  0.000  0.000  0.000  0.000  0.003
    4  0.000  0.002  0.000  0.001  0.000  0.000  0.000  0.000  0.000  0.004
    5  0.000  0.002  0.000  0.001  0.000  0.000  0.000  0.000  0.000  0.004
    6  0.000  0.002  0.000  0.001  0.000  0.000  0.000  0.000  0.000  0.003
tot    0.045  0.008  0.001  0.011  0.000  0.000  0.000  0.000  0.000  0.064
 
band    11 # energy    1.12391676 # occ.  0.00000000
 
ion      s     py     pz     px    dxy    dyz    dz2    dxz  x2-y2    tot
    1  0.004  0.000  0.000  0.000  0.000  0.000  0.000  0.000  0.000  0.005
    2  0.005  0.000  0.000  0.000  0.000  0.000  0.000  0.000  0.000  0.005
    3  0.002  0.001  0.000  0.000  0.000  0.000  0.000  0.000  0.000  0.003
    4  0.002  0.001  0.000  0.000  0.000  0.000  0.000  0.000  0.000  0.003
    5  0.002  0.001  0.000  0.000  0.000  0.000  0.000  0.000  0.000  0.003
    6  0.002  0.001  0.000  0.000  0.000  0.000  0.000  0.000  0.000  0.003
tot    0.015  0.005  0.000  0.001  0.000  0.000  0.000  0.000  0.000  0.022
 
band    12 # energy    1.36114377 # occ.  0.00000000
 
ion      s     py     pz     px    dxy    dyz    dz2    dxz  x2-y2    tot
    1  0.000  0.000  0.001  0.006  0.000  0.000  0.000  0.000  0.000  0.006
    2  0.000  0.000  0.001  0.006  0.000  0.000  0.000  0.000  0.000  0.007
    3  0.000  0.000  0.000  0.000  0.000  0.000  0.000  0.000  0.000  0.001
    4  0.000  0.000  0.000  0.000  0.000  0.000  0.000  0.000  0.000  0.001
    5  0.000  0.000  0.000  0.000  0.000  0.000  0.000  0.000  0.000  0.001
    6  0.000  0.000  0.000  0.000  0.000  0.000  0.000  0.000  0.000  0.001
tot    0.001  0.001  0.002  0.012  0.000  0.000  0.000  0.000  0.000  0.016
 
