<?xml version="1.0" encoding="ISO-8859-1"?>
<modeling>
 <generator>
  <i name="program" type="string">vasp </i>
  <i name="version" type="string">6.4.1  </i>
  <i name="subversion" type="string">05Apr23 (build Sep 20 2023 19:38:42) complex                          parallel </i>
  <i name="platform" type="string">Linux </i>
  <i name="date" type="string">2024 03 25 </i>
  <i name="time" type="string">10:52:20 </i>
 </generator>
 <incar>
  <i type="string" name="SYSTEM">C2H4</i>
  <i type="int" name="IBRION">     2</i>
  <i name="EDIFF">      0.00010000</i>
  <i name="EDIFFG">     -0.05000000</i>
  <i type="int" name="NSW">  2000</i>
  <i name="ENCUT">    500.00000000</i>
  <i type="string" name="GGA">BF  </i>
 </incar>
 <primitive_cell>
  <structure name="primitive_cell" >
   <crystal>
    <varray name="basis" >
     <v>       9.00000000       0.00000000       0.00000000 </v>
     <v>       0.00000000       9.00000000       0.00000000 </v>
     <v>       0.00000000       0.00000000       9.00000000 </v>
    </varray>
    <i name="volume">    729.00000000 </i>
    <varray name="rec_basis" >
     <v>       0.11111111       0.00000000       0.00000000 </v>
     <v>       0.00000000       0.11111111       0.00000000 </v>
     <v>       0.00000000       0.00000000       0.11111111 </v>
    </varray>
   </crystal>
   <varray name="positions" >
    <v>       0.57653318       0.49675635       0.50889250 </v>
    <v>       0.42222300       0.50034748       0.49248415 </v>
    <v>       0.57608877       0.61040879       0.51669639 </v>
    <v>       0.57608877       0.38311279       0.51669639 </v>
    <v>       0.42288961       0.60287771       0.49579026 </v>
    <v>       0.42288961       0.39780393       0.49579026 </v>
   </varray>
  </structure>
  <varray name="primitive_index" >
   <v type="int" >        1 </v>
   <v type="int" >        2 </v>
   <v type="int" >        3 </v>
   <v type="int" >        4 </v>
   <v type="int" >        5 </v>
   <v type="int" >        6 </v>
  </varray>
 </primitive_cell>
 <kpoints>
  <generation param="Gamma">
   <v type="int" name="divisions">       1        1        1 </v>
   <v name="usershift">      0.00000000       0.00000000       0.00000000 </v>
   <v name="genvec1">      1.00000000       0.00000000       0.00000000 </v>
   <v name="genvec2">      0.00000000       1.00000000       0.00000000 </v>
   <v name="genvec3">      0.00000000       0.00000000       1.00000000 </v>
   <v name="shift">      0.00000000       0.00000000       0.00000000 </v>
  </generation>
  <varray name="kpointlist" >
   <v>       0.00000000       0.00000000       0.00000000 </v>
  </varray>
  <varray name="weights" >
   <v>       1.00000000 </v>
  </varray>
 </kpoints>
 <parameters>
  <separator name="general" >
   <i type="string" name="SYSTEM">C2H4</i>
   <i type="logical" name="LCOMPAT"> F  </i>
  </separator>
  <separator name="electronic" >
   <i type="string" name="PREC">normal</i>
   <i name="ENMAX">    500.00000000</i>
   <i name="ENAUG">    644.87300000</i>
   <i name="EDIFF">      0.00010000</i>
   <i type="int" name="IALGO">    38</i>
   <i type="int" name="IWAVPR">    11</i>
   <i type="int" name="NBANDS">    12</i>
   <i type="int" name="NBANDSLOW">    -1</i>
   <i type="int" name="NBANDSHIGH">    -1</i>
   <i name="NELECT">     12.00000000</i>
   <i type="int" name="TURBO">     0</i>
   <i type="int" name="IRESTART">     0</i>
   <i type="int" name="NREBOOT">     0</i>
   <i type="int" name="NMIN">     0</i>
   <i name="EREF">      0.00000000</i>
   <separator name="electronic smearing" >
    <i type="int" name="ISMEAR">     1</i>
    <i name="SIGMA">      0.20000000</i>
    <i name="KSPACING">      0.50000000</i>
    <i type="logical" name="KGAMMA"> T  </i>
    <i type="logical" name="KBLOWUP"> T  </i>
   </separator>
   <separator name="electronic projectors" >
    <i type="logical" name="LREAL"> F  </i>
    <v name="ROPT">      0.00000000      0.00000000</v>
    <i type="int" name="LMAXPAW">  -100</i>
    <i type="int" name="LMAXMIX">     2</i>
    <i type="logical" name="NLSPLINE"> F  </i>
   </separator>
   <separator name="electronic startup" >
    <i type="int" name="ISTART">     1</i>
    <i type="int" name="ICHARG">     0</i>
    <i type="int" name="INIWAV">     1</i>
   </separator>
   <separator name="electronic spin" >
    <i type="int" name="ISPIN">     1</i>
    <i type="logical" name="LNONCOLLINEAR"> F  </i>
    <v name="MAGMOM">      1.00000000      1.00000000      1.00000000      1.00000000      1.00000000      1.00000000</v>
    <i name="NUPDOWN">     -1.00000000</i>
    <i type="logical" name="LSORBIT"> F  </i>
    <v name="SAXIS">      0.00000000      0.00000000      1.00000000</v>
    <i type="logical" name="LSPIRAL"> F  </i>
    <v name="QSPIRAL">      0.00000000      0.00000000      0.00000000</v>
    <i type="logical" name="LZEROZ"> F  </i>
   </separator>
   <separator name="electronic exchange-correlation" >
    <i type="logical" name="LASPH"> F  </i>
    <i type="logical" name="LMETAGGA"> F  </i>
   </separator>
   <separator name="electronic convergence" >
    <i type="int" name="NELM">    60</i>
    <i type="int" name="NELMDL">     0</i>
    <i type="int" name="NELMIN">     2</i>
    <i name="ENINI">    500.00000000</i>
    <separator name="electronic convergence detail" >
     <i type="logical" name="LDIAG"> T  </i>
     <i type="logical" name="LSUBROT"> F  </i>
     <i name="WEIMIN">      0.00100000</i>
     <i name="EBREAK">      0.00000208</i>
     <i name="DEPER">      0.30000000</i>
     <i type="int" name="NRMM">     4</i>
     <i name="TIME">      0.40000000</i>
    </separator>
   </separator>
   <separator name="electronic mixer" >
    <i name="AMIX">      0.40000000</i>
    <i name="BMIX">      1.00000000</i>
    <i name="AMIN">      0.10000000</i>
    <i name="AMIX_MAG">      1.60000000</i>
    <i name="BMIX_MAG">      1.00000000</i>
    <separator name="electronic mixer details" >
     <i type="int" name="IMIX">     4</i>
     <i type="logical" name="MIXFIRST"> F  </i>
     <i type="int" name="MAXMIX">   -45</i>
     <i name="WC">    100.00000000</i>
     <i type="int" name="INIMIX">     1</i>
     <i type="int" name="MIXPRE">     1</i>
     <i type="int" name="MREMOVE">     5</i>
    </separator>
   </separator>
   <separator name="electronic dipolcorrection" >
    <i type="logical" name="LDIPOL"> F  </i>
    <i type="logical" name="LMONO"> F  </i>
    <i type="int" name="IDIPOL">     0</i>
    <i name="EPSILON">      1.00000000</i>
    <v name="DIPOL">   -100.00000000   -100.00000000   -100.00000000</v>
    <i name="EFIELD">      0.00000000</i>
   </separator>
  </separator>
  <separator name="grids" >
   <i type="int" name="NGX">    50</i>
   <i type="int" name="NGY">    50</i>
   <i type="int" name="NGZ">    50</i>
   <i type="int" name="NGXF">   100</i>
   <i type="int" name="NGYF">   100</i>
   <i type="int" name="NGZF">   100</i>
   <i type="logical" name="ADDGRID"> F  </i>
  </separator>
  <separator name="ionic" >
   <i type="int" name="NSW">  2000</i>
   <i type="int" name="IBRION">     2</i>
   <i type="int" name="MDALGO">     0</i>
   <i type="int" name="ISIF">     2</i>
   <i name="PSTRESS">      0.00000000</i>
   <i name="EDIFFG">     -0.05000000</i>
   <i type="int" name="NFREE">     1</i>
   <i name="POTIM">      0.50000000</i>
   <i name="SMASS">     -3.00000000</i>
   <i name="SCALEE">      1.00000000</i>
  </separator>
  <separator name="ionic md" >
   <i name="TEBEG">      0.00010000</i>
   <i name="TEEND">      0.00010000</i>
   <i type="int" name="NBLOCK">     1</i>
   <i type="int" name="KBLOCK">  2000</i>
   <i type="int" name="NPACO">   256</i>
   <i name="APACO">     10.00000000</i>
  </separator>
  <separator name="symmetry" >
   <i type="int" name="ISYM">     2</i>
   <i name="SYMPREC">      0.00001000</i>
  </separator>
  <separator name="dos" >
   <i type="int" name="LORBIT">     0</i>
   <v name="RWIGS">     -1.00000000     -1.00000000</v>
   <i type="int" name="NEDOS">   301</i>
   <i name="EMIN">     10.00000000</i>
   <i name="EMAX">    -10.00000000</i>
   <i name="EFERMI">      0.00000000</i>
  </separator>
  <separator name="writing" >
   <i type="int" name="NWRITE">     2</i>
   <i type="logical" name="LWAVE"> T  </i>
   <i type="logical" name="LDOWNSAMPLE"> F  </i>
   <i type="logical" name="LCHARG"> T  </i>
   <i type="logical" name="LPARD"> F  </i>
   <i type="logical" name="LVTOT"> F  </i>
   <i type="logical" name="LVHAR"> F  </i>
   <i type="logical" name="LELF"> F  </i>
   <i type="logical" name="LOPTICS"> F  </i>
   <v name="STM">      0.00000000      0.00000000      0.00000000      0.00000000      0.00000000      0.00000000      0.00000000</v>
  </separator>
  <separator name="performance" >
   <i type="int" name="NPAR">     4</i>
   <i type="int" name="NSIM">     4</i>
   <i type="int" name="NBLK">    -1</i>
   <i type="logical" name="LPLANE"> T  </i>
   <i type="logical" name="LSCALAPACK"> T  </i>
   <i type="logical" name="LSCAAWARE"> F  </i>
   <i type="logical" name="LSCALU"> F  </i>
   <i type="logical" name="LASYNC"> F  </i>
   <i type="logical" name="LORBITALREAL"> F  </i>
  </separator>
  <separator name="miscellaneous" >
   <i type="int" name="IDIOT">     3</i>
   <i type="int" name="PHON_NSTRUCT">    -1</i>
   <i type="logical" name="LMUSIC"> F  </i>
   <v name="POMASS">     12.01100000      1.00000000</v>
   <v name="DARWINR">      0.00000000      0.00000000</v>
   <v name="DARWINV">      1.00000000      1.00000000</v>
   <i type="logical" name="LCORR"> T  </i>
  </separator>
  <i type="logical" name="GGA_COMPAT"> T  </i>
  <i type="logical" name="LBERRY"> F  </i>
  <i type="int" name="ICORELEVEL">     0</i>
  <i type="logical" name="LDAU"> F  </i>
  <i type="int" name="I_CONSTRAINED_M">     0</i>
  <separator name="electronic exchange-correlation" >
   <i type="string" name="GGA">BF</i>
   <i type="int" name="VOSKOWN">     0</i>
   <i type="logical" name="LHFCALC"> F  </i>
   <i type="string" name="PRECFOCK"></i>
   <i type="logical" name="LSYMGRAD"> F  </i>
   <i type="logical" name="LHFONE"> F  </i>
   <i type="logical" name="LRHFCALC"> F  </i>
   <i type="logical" name="LTHOMAS"> F  </i>
   <i type="logical" name="LMODELHF"> F  </i>
   <i type="logical" name="LFOCKACE"> F  </i>
   <i name="ENCUT4O">     -1.00000000</i>
   <i type="int" name="EXXOEP">     0</i>
   <i type="int" name="FOURORBIT">     0</i>
   <i name="AEXX">      0.00000000</i>
   <i name="HFALPHA">      0.00000000</i>
   <i name="MCALPHA">      0.00000000</i>
   <i name="ALDAX">      1.00000000</i>
   <i name="AGGAX">      1.00000000</i>
   <i name="ALDAC">      1.00000000</i>
   <i name="AGGAC">      1.00000000</i>
   <i type="int" name="NKREDX">     1</i>
   <i type="int" name="NKREDY">     1</i>
   <i type="int" name="NKREDZ">     1</i>
   <i type="logical" name="SHIFTRED"> F  </i>
   <i type="logical" name="ODDONLY"> F  </i>
   <i type="logical" name="EVENONLY"> F  </i>
   <i type="int" name="LMAXFOCK">     0</i>
   <i type="int" name="NMAXFOCKAE">     0</i>
   <i type="logical" name="LFOCKAEDFT"> F  </i>
   <i name="HFSCREEN">      0.00000000</i>
   <i name="HFSCREENC">      0.00000000</i>
   <i type="int" name="NBANDSGWLOW">     0</i>
  </separator>
  <separator name="vdW DFT" >
   <i type="logical" name="LUSE_VDW"> F  </i>
   <i type="int" name="IVDW_NL">     1</i>
   <i type="logical" name="LSPIN_VDW"> F  </i>
   <i name="Zab_VDW">     -0.84910000</i>
   <i name="PARAM1">      0.12340000</i>
   <i name="PARAM2">      1.00000000</i>
   <i name="PARAM3">      0.00000000</i>
  </separator>
  <separator name="model GW" >
   <i type="int" name="MODEL_GW">     0</i>
   <i name="MODEL_EPS0">     72.90000000</i>
   <i name="MODEL_ALPHA">      1.00000000</i>
  </separator>
  <separator name="linear response parameters" >
   <i type="logical" name="LEPSILON"> F  </i>
   <i type="logical" name="LRPA"> F  </i>
   <i type="logical" name="LNABLA"> F  </i>
   <i type="logical" name="LVEL"> F  </i>
   <i name="CSHIFT">      0.10000000</i>
   <i name="OMEGAMAX">     -1.00000000</i>
   <i name="DEG_THRESHOLD">      0.00200000</i>
   <i name="RTIME">     -0.10000000</i>
   <i name="WPLASMAI">      0.00000000</i>
   <v name="DFIELD">      0.00000000      0.00000000      0.00000000</v>
   <v name="WPLASMA">      0.00000000      0.00000000      0.00000000      0.00000000      0.00000000      0.00000000      0.00000000      0.00000000      0.00000000</v>
  </separator>
  <separator name="orbital magnetization" >
   <i type="logical" name="NUCIND"> F  </i>
   <v name="MAGPOS">      0.00000000      0.00000000      0.00000000</v>
   <i type="logical" name="LNICSALL"> T  </i>
   <i type="logical" name="ORBITALMAG"> F  </i>
   <i type="logical" name="LMAGBLOCH"> F  </i>
   <i type="logical" name="LCHIMAG"> F  </i>
   <i type="logical" name="LGAUGE"> T  </i>
   <i type="int" name="MAGATOM">     0</i>
   <v name="MAGDIPOL">      0.00000000      0.00000000      0.00000000</v>
   <v name="AVECCONST">      0.00000000      0.00000000      0.00000000</v>
  </separator>
  <separator name="response functions" >
   <i type="logical" name="LALL_IN_ONE"> F  </i>
   <i type="int" name="IALL_IN_ONE">    -1</i>
   <i type="int" name="NBANDS_WAVE">    -1</i>
   <i type="logical" name="LFINITE_TEMPERATURE"> F  </i>
   <i type="logical" name="LADDER"> F  </i>
   <i type="logical" name="LRPAFORCE"> F  </i>
   <i type="logical" name="LFXC"> F  </i>
   <i type="logical" name="LHARTREE"> T  </i>
   <i type="int" name="IBSE">     0</i>
   <v type="int" name="KPOINT">    -1     0     0     0</v>
   <i type="logical" name="LTCTC"> F  </i>
   <i type="logical" name="LTCTE"> F  </i>
   <i type="logical" name="LTETE"> F  </i>
   <i type="logical" name="LTRIPLET"> F  </i>
   <i type="logical" name="LFXCEPS"> F  </i>
   <i type="logical" name="LFXHEG"> F  </i>
   <i type="int" name="NATURALO">     2</i>
   <i type="logical" name="LHOLEGF"> F  </i>
   <i type="logical" name="L2ORDER"> F  </i>
   <i type="logical" name="LDMP1"> F  </i>
   <i type="logical" name="LMP2LT"> F  </i>
   <i type="logical" name="LSMP2LT"> F  </i>
   <i type="logical" name="LGWLF"> F  </i>
   <i name="ENCUTGW">     -1.60000002</i>
   <i name="ENCUTGWSOFT">     -1.60000002</i>
   <i name="ENCUTLF">     -1.00000000</i>
   <i type="logical" name="LESF_SPLINES"> F  </i>
   <i type="int" name="LMAXMP2">    -1</i>
   <i name="SCISSOR">      0.00000000</i>
   <i type="int" name="NOMEGA">     0</i>
   <i type="int" name="NOMEGAR">     0</i>
   <i type="int" name="NBANDSGW">    -1</i>
   <i type="int" name="NBANDSO">    -1</i>
   <i type="int" name="NBANDSV">    -1</i>
   <i type="int" name="NELMGW">     1</i>
   <i type="int" name="NELMHF">     1</i>
   <i type="int" name="DIM">     3</i>
   <i type="int" name="IESPILON">     4</i>
   <i type="int" name="ANTIRES">     0</i>
   <i name="OMEGAMAX">    -30.00000000</i>
   <i name="OMEGAMIN">    -30.00000000</i>
   <i name="OMEGATL">   -200.00000000</i>
   <i type="int" name="OMEGAGRID">     0</i>
   <i name="CSHIFT">     -0.10000000</i>
   <i type="logical" name="LSELFENERGY"> F  </i>
   <i type="logical" name="LSPECTRAL"> F  </i>
   <i type="logical" name="LSPECTRALGW"> F  </i>
   <i type="logical" name="LSINGLES"> F  </i>
   <i type="logical" name="LFERMIGW"> F  </i>
   <i type="logical" name="ODDONLYGW"> F  </i>
   <i type="logical" name="EVENONLYGW"> F  </i>
   <i type="int" name="NKREDLFX">     1</i>
   <i type="int" name="NKREDLFY">     1</i>
   <i type="int" name="NKREDLFZ">     1</i>
   <i type="int" name="MAXMEM">  2800</i>
   <i type="int" name="TELESCOPE">     0</i>
   <i type="int" name="NTAUPAR">    -1</i>
   <i type="int" name="NOMEGAPAR">    -1</i>
   <i name="DAMP_NEWTON">      0.80000001</i>
   <i name="LAMBDA">      1.00000000</i>
  </separator>
  <separator name="External order field" >
   <i name="OFIELD_KAPPA">      0.00000000</i>
   <v name="OFIELD_K">      0.00000000      0.00000000      0.00000000</v>
   <i name="OFIELD_Q6_NEAR">      0.00000000</i>
   <i name="OFIELD_Q6_FAR">      0.00000000</i>
   <i name="OFIELD_A">      0.00000000</i>
  </separator>
  <separator name="optional k-points parameters" >
   <i type="int" name="KPOINTS_OPT_MODE">     1</i>
   <i type="logical" name="LKPOINTS_OPT"> F  </i>
  </separator>
  <separator name="solvation model" >
   <i type="logical" name="LSOL"> F  </i>
  </separator>
 </parameters>
 <atominfo>
  <atoms>       6 </atoms>
  <types>       2 </types>
  <array name="atoms" >
   <dimension dim="1">ion</dimension>
   <field type="string">element</field>
   <field type="int">atomtype</field>
   <set>
    <rc><c>C </c><c>   1</c></rc>
    <rc><c>C </c><c>   1</c></rc>
    <rc><c>H </c><c>   2</c></rc>
    <rc><c>H </c><c>   2</c></rc>
    <rc><c>H </c><c>   2</c></rc>
    <rc><c>H </c><c>   2</c></rc>
   </set>
  </array>
  <array name="atomtypes" >
   <dimension dim="1">type</dimension>
   <field type="int">atomspertype</field>
   <field type="string">element</field>
   <field>mass</field>
   <field>valence</field>
   <field type="string">pseudopotential</field>
   <set>
    <rc><c>   2</c><c>C </c><c>     12.01100000</c><c>      4.00000000</c><c> PAW_PBE C 08Apr2002                    </c></rc>
    <rc><c>   4</c><c>H </c><c>      1.00000000</c><c>      1.00000000</c><c> PAW_PBE H 15Jun2001                    </c></rc>
   </set>
  </array>
 </atominfo>
 <structure name="initialpos" >
  <crystal>
   <varray name="basis" >
    <v>       9.00000000       0.00000000       0.00000000 </v>
    <v>       0.00000000       9.00000000       0.00000000 </v>
    <v>       0.00000000       0.00000000       9.00000000 </v>
   </varray>
   <i name="volume">    729.00000000 </i>
   <varray name="rec_basis" >
    <v>       0.11111111       0.00000000       0.00000000 </v>
    <v>       0.00000000       0.11111111       0.00000000 </v>
    <v>       0.00000000       0.00000000       0.11111111 </v>
   </varray>
  </crystal>
  <varray name="positions" >
   <v>       0.57653318       0.49675635       0.50889250 </v>
   <v>       0.42222300       0.50034748       0.49248415 </v>
   <v>       0.57608877       0.61040879       0.51669639 </v>
   <v>       0.57608877       0.38311279       0.51669639 </v>
   <v>       0.42288961       0.60287771       0.49579026 </v>
   <v>       0.42288961       0.39780393       0.49579026 </v>
  </varray>
 </structure>
 <calculation>
  <scstep>
   <time name="dav">    0.11    0.11</time>
   <time name="total">    0.32    0.36</time>
   <energy>
    <i name="alphaZ">      0.83102696 </i>
    <i name="ewald">    263.06744886 </i>
    <i name="hartreedc">   -488.81891874 </i>
    <i name="XCdc">     39.39601791 </i>
    <i name="pawpsdc">    149.94313915 </i>
    <i name="pawaedc">   -153.14126880 </i>
    <i name="eentropy">      0.01159581 </i>
    <i name="bandstr">   -196.34074165 </i>
    <i name="atom">    347.42308926 </i>
    <i name="e_fr_energy">    -37.62861122 </i>
    <i name="e_wo_entrp">    -37.64020704 </i>
    <i name="e_0_energy">    -37.63247649 </i>
   </energy>
  </scstep>
  <scstep>
   <time name="dav">    0.07    0.08</time>
   <time name="total">    0.27    0.27</time>
   <energy>
    <i name="e_fr_energy">    -32.98108380 </i>
    <i name="e_wo_entrp">    -32.99268200 </i>
    <i name="e_0_energy">    -32.98494987 </i>
   </energy>
  </scstep>
  <scstep>
   <time name="dav">    0.08    0.08</time>
   <time name="total">    0.24    0.25</time>
   <energy>
    <i name="e_fr_energy">    -30.47370140 </i>
    <i name="e_wo_entrp">    -30.49001655 </i>
    <i name="e_0_energy">    -30.47913978 </i>
   </energy>
  </scstep>
  <scstep>
   <time name="dav">    0.06    0.06</time>
   <time name="total">    0.22    0.22</time>
   <energy>
    <i name="e_fr_energy">    -30.39659525 </i>
    <i name="e_wo_entrp">    -30.41121473 </i>
    <i name="e_0_energy">    -30.40146841 </i>
   </energy>
  </scstep>
  <scstep>
   <time name="dav">    0.07    0.07</time>
   <time name="total">    0.23    0.39</time>
   <energy>
    <i name="e_fr_energy">    -30.38899717 </i>
    <i name="e_wo_entrp">    -30.40184057 </i>
    <i name="e_0_energy">    -30.39327830 </i>
   </energy>
  </scstep>
  <scstep>
   <time name="dav">    0.07    0.07</time>
   <time name="total">    0.24    0.24</time>
   <energy>
    <i name="e_fr_energy">    -30.39436058 </i>
    <i name="e_wo_entrp">    -30.40682473 </i>
    <i name="e_0_energy">    -30.39851530 </i>
   </energy>
  </scstep>
  <scstep>
   <time name="dav">    0.05    0.05</time>
   <time name="total">    0.20    0.20</time>
   <energy>
    <i name="e_fr_energy">    -30.40327639 </i>
    <i name="e_wo_entrp">    -30.41552882 </i>
    <i name="e_0_energy">    -30.40736053 </i>
   </energy>
  </scstep>
  <scstep>
   <time name="dav">    0.06    0.06</time>
   <time name="total">    0.23    0.23</time>
   <energy>
    <i name="e_fr_energy">    -30.41333167 </i>
    <i name="e_wo_entrp">    -30.42548560 </i>
    <i name="e_0_energy">    -30.41738298 </i>
   </energy>
  </scstep>
  <scstep>
   <time name="dav">    0.08    0.08</time>
   <time name="total">    0.25    0.25</time>
   <energy>
    <i name="e_fr_energy">    -30.41942799 </i>
    <i name="e_wo_entrp">    -30.43155000 </i>
    <i name="e_0_energy">    -30.42346866 </i>
   </energy>
  </scstep>
  <scstep>
   <time name="dav">    0.10    0.10</time>
   <time name="total">    0.27    0.28</time>
   <energy>
    <i name="e_fr_energy">    -30.42335365 </i>
    <i name="e_wo_entrp">    -30.43548754 </i>
    <i name="e_0_energy">    -30.42739828 </i>
   </energy>
  </scstep>
  <scstep>
   <time name="dav">    0.07    0.07</time>
   <time name="total">    0.25    0.25</time>
   <energy>
    <i name="e_fr_energy">    -30.42545513 </i>
    <i name="e_wo_entrp">    -30.43759897 </i>
    <i name="e_0_energy">    -30.42950308 </i>
   </energy>
  </scstep>
  <scstep>
   <time name="dav">    0.09    0.09</time>
   <time name="total">    0.26    0.26</time>
   <energy>
    <i name="e_fr_energy">    -30.42599449 </i>
    <i name="e_wo_entrp">    -30.43813703 </i>
    <i name="e_0_energy">    -30.43004200 </i>
   </energy>
  </scstep>
  <scstep>
   <time name="dav">    0.06    0.06</time>
   <time name="total">    0.22    0.22</time>
   <energy>
    <i name="e_fr_energy">    -30.42634330 </i>
    <i name="e_wo_entrp">    -30.43847833 </i>
    <i name="e_0_energy">    -30.43038831 </i>
   </energy>
  </scstep>
  <scstep>
   <time name="dav">    0.08    0.08</time>
   <time name="total">    0.23    0.23</time>
   <energy>
    <i name="alphaZ">      0.83102696 </i>
    <i name="ewald">    263.06744886 </i>
    <i name="hartreedc">   -530.27382977 </i>
    <i name="XCdc">     40.66856368 </i>
    <i name="pawpsdc">    184.22923485 </i>
    <i name="pawaedc">   -187.60022127 </i>
    <i name="eentropy">      0.01213658 </i>
    <i name="bandstr">   -148.78381866 </i>
    <i name="atom">    347.42308926 </i>
    <i name="e_fr_energy">    -30.42636952 </i>
    <i name="e_wo_entrp">    -30.43850610 </i>
    <i name="e_0_energy">    -30.43041505 </i>
   </energy>
  </scstep>
  <structure>
   <crystal>
    <varray name="basis" >
     <v>       9.00000000       0.00000000       0.00000000 </v>
     <v>       0.00000000       9.00000000       0.00000000 </v>
     <v>       0.00000000       0.00000000       9.00000000 </v>
    </varray>
    <i name="volume">    729.00000000 </i>
    <varray name="rec_basis" >
     <v>       0.11111111       0.00000000       0.00000000 </v>
     <v>       0.00000000       0.11111111       0.00000000 </v>
     <v>       0.00000000       0.00000000       0.11111111 </v>
    </varray>
   </crystal>
   <varray name="positions" >
    <v>       0.57653318       0.49675635       0.50889250 </v>
    <v>       0.42222300       0.50034748       0.49248415 </v>
    <v>       0.57608877       0.61040879       0.51669639 </v>
    <v>       0.57608877       0.38311279       0.51669639 </v>
    <v>       0.42288961       0.60287771       0.49579026 </v>
    <v>       0.42288961       0.39780393       0.49579026 </v>
   </varray>
  </structure>
  <varray name="forces" >
   <v>      -2.88337965       0.25634083      -0.60255718 </v>
   <v>       3.44099522      -0.25807509      -0.39174186 </v>
   <v>       4.43409881       1.65327165       0.75340189 </v>
   <v>       4.17156696      -1.68028502       0.70201812 </v>
   <v>      -4.45491421       7.79424875      -0.22638886 </v>
   <v>      -4.70836714      -7.76550112      -0.23473212 </v>
  </varray>
  <varray name="stress" >
   <v>      16.97094590       0.69855830       2.58567579 </v>
   <v>       0.69855829      38.81243724       0.07180973 </v>
   <v>       2.58567578       0.07180972       0.24534039 </v>
  </varray>
  <energy>
   <i name="e_fr_energy">    -30.42636952 </i>
   <i name="e_wo_entrp">    -30.43850610 </i>
   <i name="e_0_energy">    -30.43041505 </i>
  </energy>
  <time name="totalsc">    4.71    5.00</time>
 </calculation>
 <calculation>
  <scstep>
   <time name="dav">    0.08    0.08</time>
   <time name="total">    0.26    0.27</time>
   <energy>
    <i name="alphaZ">      0.83102696 </i>
    <i name="ewald">    233.27908857 </i>
    <i name="hartreedc">   -508.87735152 </i>
    <i name="XCdc">     39.48788005 </i>
    <i name="pawpsdc">    184.23473159 </i>
    <i name="pawaedc">   -187.60576295 </i>
    <i name="eentropy">      0.01159581 </i>
    <i name="bandstr">   -139.47429526 </i>
    <i name="atom">    347.42308926 </i>
    <i name="e_fr_energy">    -30.68999749 </i>
    <i name="e_wo_entrp">    -30.70159330 </i>
    <i name="e_0_energy">    -30.69386276 </i>
   </energy>
  </scstep>
  <scstep>
   <time name="dav">    0.07    0.07</time>
   <time name="total">    0.21    0.21</time>
   <energy>
    <i name="e_fr_energy">    -30.53512635 </i>
    <i name="e_wo_entrp">    -30.54672216 </i>
    <i name="e_0_energy">    -30.53899162 </i>
   </energy>
  </scstep>
  <scstep>
   <time name="dav">    0.08    0.08</time>
   <time name="total">    0.24    0.25</time>
   <energy>
    <i name="e_fr_energy">    -30.32349087 </i>
    <i name="e_wo_entrp">    -30.33508668 </i>
    <i name="e_0_energy">    -30.32735614 </i>
   </energy>
  </scstep>
  <scstep>
   <time name="dav">    0.08    0.08</time>
   <time name="total">    0.26    0.27</time>
   <energy>
    <i name="e_fr_energy">    -30.30955819 </i>
    <i name="e_wo_entrp">    -30.32115400 </i>
    <i name="e_0_energy">    -30.31342346 </i>
   </energy>
  </scstep>
  <scstep>
   <time name="dav">    0.06    0.06</time>
   <time name="total">    0.22    0.22</time>
   <energy>
    <i name="e_fr_energy">    -30.31134988 </i>
    <i name="e_wo_entrp">    -30.32294569 </i>
    <i name="e_0_energy">    -30.31521515 </i>
   </energy>
  </scstep>
  <scstep>
   <time name="dav">    0.09    0.09</time>
   <time name="total">    0.26    0.27</time>
   <energy>
    <i name="e_fr_energy">    -30.31204100 </i>
    <i name="e_wo_entrp">    -30.32363681 </i>
    <i name="e_0_energy">    -30.31590627 </i>
   </energy>
  </scstep>
  <scstep>
   <time name="dav">    0.10    0.10</time>
   <time name="total">    0.27    0.27</time>
   <energy>
    <i name="alphaZ">      0.83102696 </i>
    <i name="ewald">    233.27908857 </i>
    <i name="hartreedc">   -506.67585383 </i>
    <i name="XCdc">     39.40168016 </i>
    <i name="pawpsdc">    178.13029927 </i>
    <i name="pawaedc">   -181.42204459 </i>
    <i name="eentropy">      0.01159581 </i>
    <i name="bandstr">   -141.29101589 </i>
    <i name="atom">    347.42308926 </i>
    <i name="e_fr_energy">    -30.31213428 </i>
    <i name="e_wo_entrp">    -30.32373009 </i>
    <i name="e_0_energy">    -30.31599955 </i>
   </energy>
  </scstep>
  <structure>
   <crystal>
    <varray name="basis" >
     <v>       9.00000000       0.00000000       0.00000000 </v>
     <v>       0.00000000       9.00000000       0.00000000 </v>
     <v>       0.00000000       0.00000000       9.00000000 </v>
    </varray>
    <i name="volume">    729.00000000 </i>
    <varray name="rec_basis" >
     <v>       0.11111111       0.00000000       0.00000000 </v>
     <v>       0.00000000       0.11111111       0.00000000 </v>
     <v>       0.00000000       0.00000000       0.11111111 </v>
    </varray>
   </crystal>
   <varray name="positions" >
    <v>       0.56107742       0.49813041       0.50566262 </v>
    <v>       0.44066775       0.49896412       0.49038429 </v>
    <v>       0.59985685       0.61927081       0.52073484 </v>
    <v>       0.59844960       0.37410597       0.52045941 </v>
    <v>       0.39900996       0.64465718       0.49457675 </v>
    <v>       0.39765138       0.35617855       0.49453202 </v>
   </varray>
  </structure>
  <varray name="forces" >
   <v>      27.30823958      -0.47197933       4.17395926 </v>
   <v>     -28.60570848       0.17762991      -3.00399223 </v>
   <v>       1.90066192      -2.52546891      -0.06771904 </v>
   <v>       1.77376939       2.85716677      -0.10056907 </v>
   <v>      -1.16531646      -4.37856862      -0.49312410 </v>
   <v>      -1.21164593       4.34122017      -0.50855482 </v>
  </varray>
  <varray name="stress" >
   <v>      78.43691217      -0.24856629      10.25140118 </v>
   <v>      -0.24856629     -38.07277811       0.03332345 </v>
   <v>      10.25140118       0.03332345       0.98103836 </v>
  </varray>
  <energy>
   <i name="e_fr_energy">    -30.31213428 </i>
   <i name="e_wo_entrp">    -30.32373009 </i>
   <i name="e_0_energy">    -30.31599955 </i>
  </energy>
  <time name="totalsc">    2.07    2.09</time>
 </calculation>
 <calculation>
  <scstep>
   <time name="dav">    0.06    0.07</time>
   <time name="total">    0.24    0.24</time>
   <energy>
    <i name="alphaZ">      0.83102696 </i>
    <i name="ewald">    242.73943701 </i>
    <i name="hartreedc">   -515.68987205 </i>
    <i name="XCdc">     39.81313582 </i>
    <i name="pawpsdc">    178.13112984 </i>
    <i name="pawaedc">   -181.42288124 </i>
    <i name="eentropy">      0.01159581 </i>
    <i name="bandstr">   -144.93481554 </i>
    <i name="atom">    347.42308926 </i>
    <i name="e_fr_energy">    -33.09815413 </i>
    <i name="e_wo_entrp">    -33.10974994 </i>
    <i name="e_0_energy">    -33.10201940 </i>
   </energy>
  </scstep>
  <scstep>
   <time name="dav">    0.07    0.07</time>
   <time name="total">    0.23    0.23</time>
   <energy>
    <i name="e_fr_energy">    -33.11740453 </i>
    <i name="e_wo_entrp">    -33.12900034 </i>
    <i name="e_0_energy">    -33.12126980 </i>
   </energy>
  </scstep>
  <scstep>
   <time name="dav">    0.06    0.06</time>
   <time name="total">    0.24    0.24</time>
   <energy>
    <i name="e_fr_energy">    -33.06224153 </i>
    <i name="e_wo_entrp">    -33.07383734 </i>
    <i name="e_0_energy">    -33.06610680 </i>
   </energy>
  </scstep>
  <scstep>
   <time name="dav">    0.08    0.08</time>
   <time name="total">    0.26    0.26</time>
   <energy>
    <i name="e_fr_energy">    -33.05907451 </i>
    <i name="e_wo_entrp">    -33.07067032 </i>
    <i name="e_0_energy">    -33.06293978 </i>
   </energy>
  </scstep>
  <scstep>
   <time name="dav">    0.06    0.06</time>
   <time name="total">    0.22    0.22</time>
   <energy>
    <i name="e_fr_energy">    -33.05917336 </i>
    <i name="e_wo_entrp">    -33.07076917 </i>
    <i name="e_0_energy">    -33.06303863 </i>
   </energy>
  </scstep>
  <scstep>
   <time name="dav">    0.07    0.07</time>
   <time name="total">    0.23    0.23</time>
   <energy>
    <i name="e_fr_energy">    -33.05940018 </i>
    <i name="e_wo_entrp">    -33.07099599 </i>
    <i name="e_0_energy">    -33.06326545 </i>
   </energy>
  </scstep>
  <scstep>
   <time name="dav">    0.09    0.09</time>
   <time name="total">    0.26    0.26</time>
   <energy>
    <i name="e_fr_energy">    -33.05951494 </i>
    <i name="e_wo_entrp">    -33.07111075 </i>
    <i name="e_0_energy">    -33.06338021 </i>
   </energy>
  </scstep>
  <scstep>
   <time name="dav">    0.08    0.08</time>
   <time name="total">    0.26    0.26</time>
   <energy>
    <i name="e_fr_energy">    -33.05983892 </i>
    <i name="e_wo_entrp">    -33.07143473 </i>
    <i name="e_0_energy">    -33.06370419 </i>
   </energy>
  </scstep>
  <scstep>
   <time name="dav">    0.07    0.07</time>
   <time name="total">    0.25    0.25</time>
   <energy>
    <i name="e_fr_energy">    -33.06007060 </i>
    <i name="e_wo_entrp">    -33.07166641 </i>
    <i name="e_0_energy">    -33.06393587 </i>
   </energy>
  </scstep>
  <scstep>
   <time name="dav">    0.08    0.08</time>
   <time name="total">    0.27    0.27</time>
   <energy>
    <i name="e_fr_energy">    -33.06022099 </i>
    <i name="e_wo_entrp">    -33.07181680 </i>
    <i name="e_0_energy">    -33.06408626 </i>
   </energy>
  </scstep>
  <scstep>
   <time name="dav">    0.06    0.06</time>
   <time name="total">    0.21    0.21</time>
   <energy>
    <i name="alphaZ">      0.83102696 </i>
    <i name="ewald">    242.73943701 </i>
    <i name="hartreedc">   -517.64034530 </i>
    <i name="XCdc">     39.92371934 </i>
    <i name="pawpsdc">    168.30825226 </i>
    <i name="pawaedc">   -171.61916057 </i>
    <i name="eentropy">      0.01159581 </i>
    <i name="bandstr">   -143.03788839 </i>
    <i name="atom">    347.42308926 </i>
    <i name="e_fr_energy">    -33.06027363 </i>
    <i name="e_wo_entrp">    -33.07186944 </i>
    <i name="e_0_energy">    -33.06413890 </i>
   </energy>
  </scstep>
  <structure>
   <crystal>
    <varray name="basis" >
     <v>       9.00000000       0.00000000       0.00000000 </v>
     <v>       0.00000000       9.00000000       0.00000000 </v>
     <v>       0.00000000       0.00000000       9.00000000 </v>
    </varray>
    <i name="volume">    729.00000000 </i>
    <varray name="rec_basis" >
     <v>       0.11111111       0.00000000       0.00000000 </v>
     <v>       0.00000000       0.11111111       0.00000000 </v>
     <v>       0.00000000       0.00000000       0.11111111 </v>
    </varray>
   </crystal>
   <varray name="positions" >
    <v>       0.56891710       0.49743344       0.50730092 </v>
    <v>       0.43131195       0.49966581       0.49144941 </v>
    <v>       0.58780088       0.61477570       0.51868640 </v>
    <v>       0.58710744       0.37867453       0.51855068 </v>
    <v>       0.41112252       0.62346522       0.49519228 </v>
    <v>       0.41045306       0.37729234       0.49517024 </v>
   </varray>
  </structure>
  <varray name="forces" >
   <v>       4.73485227      -0.25828186       0.75390191 </v>
   <v>      -5.27337524       0.18402576      -0.56462380 </v>
   <v>       3.65263436      -0.44499674       0.41292648 </v>
   <v>       3.40517607       0.79104115       0.34974131 </v>
   <v>      -3.14064531      -1.90492881      -0.47065903 </v>
   <v>      -3.37864215       1.63314050      -0.48128687 </v>
  </varray>
  <varray name="stress" >
   <v>      37.11937722       0.44459454       4.79886769 </v>
   <v>       0.44459454     -11.74487501       0.08246122 </v>
   <v>       4.79886769       0.08246121       0.37821020 </v>
  </varray>
  <energy>
   <i name="e_fr_energy">    -33.06027363 </i>
   <i name="e_wo_entrp">    -33.07186944 </i>
   <i name="e_0_energy">    -33.06413890 </i>
  </energy>
  <time name="totalsc">    2.98    3.00</time>
 </calculation>
 <calculation>
  <scstep>
   <time name="dav">    0.06    0.06</time>
   <time name="total">    0.24    0.25</time>
   <energy>
    <i name="alphaZ">      0.83102696 </i>
    <i name="ewald">    170.64813061 </i>
    <i name="hartreedc">   -462.91733184 </i>
    <i name="XCdc">     38.28989664 </i>
    <i name="pawpsdc">    168.30909653 </i>
    <i name="pawaedc">   -171.62000408 </i>
    <i name="eentropy">      0.01159581 </i>
    <i name="bandstr">   -124.91235420 </i>
    <i name="atom">    347.42308926 </i>
    <i name="e_fr_energy">    -33.93685432 </i>
    <i name="e_wo_entrp">    -33.94845013 </i>
    <i name="e_0_energy">    -33.94071959 </i>
   </energy>
  </scstep>
  <scstep>
   <time name="dav">    0.07    0.07</time>
   <time name="total">    0.20    0.20</time>
   <energy>
    <i name="e_fr_energy">    -33.73966190 </i>
    <i name="e_wo_entrp">    -33.75125771 </i>
    <i name="e_0_energy">    -33.74352717 </i>
   </energy>
  </scstep>
  <scstep>
   <time name="dav">    0.08    0.08</time>
   <time name="total">    0.21    0.21</time>
   <energy>
    <i name="e_fr_energy">    -33.68711779 </i>
    <i name="e_wo_entrp">    -33.69871360 </i>
    <i name="e_0_energy">    -33.69098306 </i>
   </energy>
  </scstep>
  <scstep>
   <time name="dav">    0.09    0.09</time>
   <time name="total">    0.24    0.24</time>
   <energy>
    <i name="e_fr_energy">    -33.69234074 </i>
    <i name="e_wo_entrp">    -33.70393655 </i>
    <i name="e_0_energy">    -33.69620601 </i>
   </energy>
  </scstep>
  <scstep>
   <time name="dav">    0.08    0.08</time>
   <time name="total">    0.24    0.24</time>
   <energy>
    <i name="e_fr_energy">    -33.69526639 </i>
    <i name="e_wo_entrp">    -33.70686220 </i>
    <i name="e_0_energy">    -33.69913166 </i>
   </energy>
  </scstep>
  <scstep>
   <time name="dav">    0.07    0.07</time>
   <time name="total">    0.23    0.23</time>
   <energy>
    <i name="e_fr_energy">    -33.69609875 </i>
    <i name="e_wo_entrp">    -33.70769456 </i>
    <i name="e_0_energy">    -33.69996402 </i>
   </energy>
  </scstep>
  <scstep>
   <time name="dav">    0.09    0.09</time>
   <time name="total">    0.25    0.25</time>
   <energy>
    <i name="e_fr_energy">    -33.69659960 </i>
    <i name="e_wo_entrp">    -33.70819541 </i>
    <i name="e_0_energy">    -33.70046487 </i>
   </energy>
  </scstep>
  <scstep>
   <time name="dav">    0.07    0.07</time>
   <time name="total">    0.22    0.22</time>
   <energy>
    <i name="e_fr_energy">    -33.69735451 </i>
    <i name="e_wo_entrp">    -33.70895032 </i>
    <i name="e_0_energy">    -33.70121978 </i>
   </energy>
  </scstep>
  <scstep>
   <time name="dav">    0.09    0.09</time>
   <time name="total">    0.26    0.26</time>
   <energy>
    <i name="e_fr_energy">    -33.69784402 </i>
    <i name="e_wo_entrp">    -33.70943984 </i>
    <i name="e_0_energy">    -33.70170929 </i>
   </energy>
  </scstep>
  <scstep>
   <time name="dav">    0.09    0.09</time>
   <time name="total">    0.26    0.27</time>
   <energy>
    <i name="e_fr_energy">    -33.69805375 </i>
    <i name="e_wo_entrp">    -33.70964956 </i>
    <i name="e_0_energy">    -33.70191902 </i>
   </energy>
  </scstep>
  <scstep>
   <time name="dav">    0.08    0.08</time>
   <time name="total">    0.24    0.24</time>
   <energy>
    <i name="e_fr_energy">    -33.69820710 </i>
    <i name="e_wo_entrp">    -33.70980291 </i>
    <i name="e_0_energy">    -33.70207237 </i>
   </energy>
  </scstep>
  <scstep>
   <time name="dav">    0.08    0.09</time>
   <time name="total">    0.25    0.25</time>
   <energy>
    <i name="alphaZ">      0.83102696 </i>
    <i name="ewald">    170.64813061 </i>
    <i name="hartreedc">   -451.70692796 </i>
    <i name="XCdc">     37.68746535 </i>
    <i name="pawpsdc">    126.06522568 </i>
    <i name="pawaedc">   -129.35532192 </i>
    <i name="eentropy">      0.01159581 </i>
    <i name="bandstr">   -135.30251803 </i>
    <i name="atom">    347.42308926 </i>
    <i name="e_fr_energy">    -33.69823423 </i>
    <i name="e_wo_entrp">    -33.70983004 </i>
    <i name="e_0_energy">    -33.70209950 </i>
   </energy>
  </scstep>
  <structure>
   <crystal>
    <varray name="basis" >
     <v>       9.00000000       0.00000000       0.00000000 </v>
     <v>       0.00000000       9.00000000       0.00000000 </v>
     <v>       0.00000000       0.00000000       9.00000000 </v>
    </varray>
    <i name="volume">    729.00000000 </i>
    <varray name="rec_basis" >
     <v>       0.11111111       0.00000000       0.00000000 </v>
     <v>       0.00000000       0.11111111       0.00000000 </v>
     <v>       0.00000000       0.00000000       0.11111111 </v>
    </varray>
   </crystal>
   <varray name="positions" >
    <v>       0.58525872       0.49676408       0.50958131 </v>
    <v>       0.41362657       0.49997363       0.48785170 </v>
    <v>       0.61533402       0.61633860       0.52236421 </v>
    <v>       0.61286016       0.37871779       0.52180897 </v>
    <v>       0.38600872       0.63176295       0.49241784 </v>
    <v>       0.38362476       0.36774999       0.49232591 </v>
   </varray>
  </structure>
  <varray name="forces" >
   <v>      -7.79550247       0.77660329      -0.76624406 </v>
   <v>       6.96037596      -0.33120371       1.22781590 </v>
   <v>       1.37699774      -1.72641963       0.05426573 </v>
   <v>       1.48834116       1.14958454       0.10952712 </v>
   <v>      -1.02824524      -3.57608106      -0.30882769 </v>
   <v>      -1.00196715       3.70751657      -0.31653700 </v>
  </varray>
  <varray name="stress" >
   <v>     -14.20224194       0.03630456      -1.59215812 </v>
   <v>       0.03630456     -25.99696953      -0.06706673 </v>
   <v>      -1.59215812      -0.06706673      -0.43546870 </v>
  </varray>
  <energy>
   <i name="e_fr_energy">    -33.69823423 </i>
   <i name="e_wo_entrp">    -33.70983004 </i>
   <i name="e_0_energy">    -33.70209950 </i>
  </energy>
  <time name="totalsc">    3.20    3.22</time>
 </calculation>
 <calculation>
  <scstep>
   <time name="dav">    0.08    0.08</time>
   <time name="total">    0.25    0.25</time>
   <energy>
    <i name="alphaZ">      0.83102696 </i>
    <i name="ewald">    200.47234801 </i>
    <i name="hartreedc">   -474.33917400 </i>
    <i name="XCdc">     38.36490113 </i>
    <i name="pawpsdc">    126.06432125 </i>
    <i name="pawaedc">   -129.35441942 </i>
    <i name="eentropy">      0.01159581 </i>
    <i name="bandstr">   -143.60553493 </i>
    <i name="atom">    347.42308926 </i>
    <i name="e_fr_energy">    -34.13184592 </i>
    <i name="e_wo_entrp">    -34.14344173 </i>
    <i name="e_0_energy">    -34.13571119 </i>
   </energy>
  </scstep>
  <scstep>
   <time name="dav">    0.07    0.07</time>
   <time name="total">    0.26    0.26</time>
   <energy>
    <i name="e_fr_energy">    -34.15430971 </i>
    <i name="e_wo_entrp">    -34.16590552 </i>
    <i name="e_0_energy">    -34.15817498 </i>
   </energy>
  </scstep>
  <scstep>
   <time name="dav">    0.07    0.07</time>
   <time name="total">    0.24    0.24</time>
   <energy>
    <i name="e_fr_energy">    -34.14576066 </i>
    <i name="e_wo_entrp">    -34.15735647 </i>
    <i name="e_0_energy">    -34.14962593 </i>
   </energy>
  </scstep>
  <scstep>
   <time name="dav">    0.10    0.10</time>
   <time name="total">    0.28    0.28</time>
   <energy>
    <i name="e_fr_energy">    -34.13741685 </i>
    <i name="e_wo_entrp">    -34.14901266 </i>
    <i name="e_0_energy">    -34.14128212 </i>
   </energy>
  </scstep>
  <scstep>
   <time name="dav">    0.08    0.08</time>
   <time name="total">    0.26    0.27</time>
   <energy>
    <i name="e_fr_energy">    -34.13742182 </i>
    <i name="e_wo_entrp">    -34.14901763 </i>
    <i name="e_0_energy">    -34.14128709 </i>
   </energy>
  </scstep>
  <scstep>
   <time name="dav">    0.06    0.06</time>
   <time name="total">    0.21    0.21</time>
   <energy>
    <i name="alphaZ">      0.83102696 </i>
    <i name="ewald">    200.47234801 </i>
    <i name="hartreedc">   -479.72467815 </i>
    <i name="XCdc">     38.61150704 </i>
    <i name="pawpsdc">    140.82978588 </i>
    <i name="pawaedc">   -144.12744452 </i>
    <i name="eentropy">      0.01159581 </i>
    <i name="bandstr">   -138.46470429 </i>
    <i name="atom">    347.42308926 </i>
    <i name="e_fr_energy">    -34.13747401 </i>
    <i name="e_wo_entrp">    -34.14906982 </i>
    <i name="e_0_energy">    -34.14133928 </i>
   </energy>
  </scstep>
  <structure>
   <crystal>
    <varray name="basis" >
     <v>       9.00000000       0.00000000       0.00000000 </v>
     <v>       0.00000000       9.00000000       0.00000000 </v>
     <v>       0.00000000       0.00000000       9.00000000 </v>
    </varray>
    <i name="volume">    729.00000000 </i>
    <varray name="rec_basis" >
     <v>       0.11111111       0.00000000       0.00000000 </v>
     <v>       0.00000000       0.11111111       0.00000000 </v>
     <v>       0.00000000       0.00000000       0.11111111 </v>
    </varray>
   </crystal>
   <varray name="positions" >
    <v>       0.57777084       0.49707078       0.50853642 </v>
    <v>       0.42173017       0.49983258       0.48950020 </v>
    <v>       0.60271809       0.61562247       0.52067901 </v>
    <v>       0.60106003       0.37869797       0.52031599 </v>
    <v>       0.39751609       0.62796086       0.49368911 </v>
    <v>       0.39591773       0.37212238       0.49362921 </v>
   </varray>
  </structure>
  <varray name="forces" >
   <v>      -5.01840814       0.35621381      -0.41313490 </v>
   <v>       4.24757918      -0.17323006       0.74416158 </v>
   <v>       2.26113879      -1.17692095       0.20215130 </v>
   <v>       2.20849450       0.99842621       0.20573131 </v>
   <v>      -1.81115013      -2.92833249      -0.36473553 </v>
   <v>      -1.88765420       2.92384349      -0.37417377 </v>
  </varray>
  <varray name="stress" >
   <v>       2.02777568       0.34147763       0.54953978 </v>
   <v>       0.34147763     -20.11968093       0.01343187 </v>
   <v>       0.54953977       0.01343187      -0.17283707 </v>
  </varray>
  <energy>
   <i name="e_fr_energy">    -34.13747401 </i>
   <i name="e_wo_entrp">    -34.14906982 </i>
   <i name="e_0_energy">    -34.14133928 </i>
  </energy>
  <time name="totalsc">    1.83    1.84</time>
 </calculation>
 <calculation>
  <scstep>
   <time name="dav">    0.07    0.07</time>
   <time name="total">    0.25    0.26</time>
   <energy>
    <i name="alphaZ">      0.83102696 </i>
    <i name="ewald">    196.45295597 </i>
    <i name="hartreedc">   -476.07657955 </i>
    <i name="XCdc">     38.60475564 </i>
    <i name="pawpsdc">    140.84417876 </i>
    <i name="pawaedc">   -144.14165214 </i>
    <i name="eentropy">      0.01159581 </i>
    <i name="bandstr">   -139.41499510 </i>
    <i name="atom">    347.42308926 </i>
    <i name="e_fr_energy">    -35.46562439 </i>
    <i name="e_wo_entrp">    -35.47722020 </i>
    <i name="e_0_energy">    -35.46948966 </i>
   </energy>
  </scstep>
  <scstep>
   <time name="dav">    0.10    0.10</time>
   <time name="total">    0.28    0.28</time>
   <energy>
    <i name="e_fr_energy">    -35.52613279 </i>
    <i name="e_wo_entrp">    -35.53772860 </i>
    <i name="e_0_energy">    -35.52999806 </i>
   </energy>
  </scstep>
  <scstep>
   <time name="dav">    0.08    0.08</time>
   <time name="total">    0.26    0.27</time>
   <energy>
    <i name="e_fr_energy">    -35.52896340 </i>
    <i name="e_wo_entrp">    -35.54055921 </i>
    <i name="e_0_energy">    -35.53282867 </i>
   </energy>
  </scstep>
  <scstep>
   <time name="dav">    0.05    0.05</time>
   <time name="total">    0.21    0.21</time>
   <energy>
    <i name="e_fr_energy">    -35.53071927 </i>
    <i name="e_wo_entrp">    -35.54231509 </i>
    <i name="e_0_energy">    -35.53458454 </i>
   </energy>
  </scstep>
  <scstep>
   <time name="dav">    0.07    0.07</time>
   <time name="total">    0.23    0.23</time>
   <energy>
    <i name="e_fr_energy">    -35.53194933 </i>
    <i name="e_wo_entrp">    -35.54354514 </i>
    <i name="e_0_energy">    -35.53581460 </i>
   </energy>
  </scstep>
  <scstep>
   <time name="dav">    0.06    0.06</time>
   <time name="total">    0.24    0.24</time>
   <energy>
    <i name="e_fr_energy">    -35.53349630 </i>
    <i name="e_wo_entrp">    -35.54509211 </i>
    <i name="e_0_energy">    -35.53736157 </i>
   </energy>
  </scstep>
  <scstep>
   <time name="dav">    0.06    0.06</time>
   <time name="total">    0.22    0.22</time>
   <energy>
    <i name="e_fr_energy">    -35.53444217 </i>
    <i name="e_wo_entrp">    -35.54603798 </i>
    <i name="e_0_energy">    -35.53830744 </i>
   </energy>
  </scstep>
  <scstep>
   <time name="dav">    0.06    0.06</time>
   <time name="total">    0.22    0.22</time>
   <energy>
    <i name="e_fr_energy">    -35.53524695 </i>
    <i name="e_wo_entrp">    -35.54684276 </i>
    <i name="e_0_energy">    -35.53911222 </i>
   </energy>
  </scstep>
  <scstep>
   <time name="dav">    0.09    0.09</time>
   <time name="total">    0.27    0.27</time>
   <energy>
    <i name="e_fr_energy">    -35.53561010 </i>
    <i name="e_wo_entrp">    -35.54720591 </i>
    <i name="e_0_energy">    -35.53947537 </i>
   </energy>
  </scstep>
  <scstep>
   <time name="dav">    0.10    0.10</time>
   <time name="total">    0.28    0.28</time>
   <energy>
    <i name="e_fr_energy">    -35.53573924 </i>
    <i name="e_wo_entrp">    -35.54733505 </i>
    <i name="e_0_energy">    -35.53960451 </i>
   </energy>
  </scstep>
  <scstep>
   <time name="dav">    0.08    0.08</time>
   <time name="total">    0.25    0.25</time>
   <energy>
    <i name="alphaZ">      0.83102696 </i>
    <i name="ewald">    196.45295597 </i>
    <i name="hartreedc">   -476.86798884 </i>
    <i name="XCdc">     38.61744523 </i>
    <i name="pawpsdc">    144.08791696 </i>
    <i name="pawaedc">   -147.37056799 </i>
    <i name="eentropy">      0.01159581 </i>
    <i name="bandstr">   -138.72130789 </i>
    <i name="atom">    347.42308926 </i>
    <i name="e_fr_energy">    -35.53583453 </i>
    <i name="e_wo_entrp">    -35.54743034 </i>
    <i name="e_0_energy">    -35.53969980 </i>
   </energy>
  </scstep>
  <structure>
   <crystal>
    <varray name="basis" >
     <v>       9.00000000       0.00000000       0.00000000 </v>
     <v>       0.00000000       9.00000000       0.00000000 </v>
     <v>       0.00000000       0.00000000       9.00000000 </v>
    </varray>
    <i name="volume">    729.00000000 </i>
    <varray name="rec_basis" >
     <v>       0.11111111       0.00000000       0.00000000 </v>
     <v>       0.00000000       0.11111111       0.00000000 </v>
     <v>       0.00000000       0.00000000       0.11111111 </v>
    </varray>
   </crystal>
   <varray name="positions" >
    <v>       0.56997289       0.49792680       0.50847105 </v>
    <v>       0.42595400       0.49940538       0.48993233 </v>
    <v>       0.62774931       0.61239424       0.52366685 </v>
    <v>       0.62480590       0.38228083       0.52305789 </v>
    <v>       0.37557945       0.62264729       0.49067922 </v>
    <v>       0.37265140       0.37665250       0.49054260 </v>
   </varray>
  </structure>
  <varray name="forces" >
   <v>       2.73814304      -0.01627759       0.89325112 </v>
   <v>      -2.44604981      -0.03625619       0.20817811 </v>
   <v>      -0.28403933      -2.28813017      -0.31150715 </v>
   <v>      -0.18139808       2.25126521      -0.28501220 </v>
   <v>       0.02310998      -3.11554402      -0.25273599 </v>
   <v>       0.15023420       3.20494277      -0.25217388 </v>
  </varray>
  <varray name="stress" >
   <v>       5.56007167      -0.60127242       0.69950950 </v>
   <v>      -0.60127242     -25.90752124      -0.06543354 </v>
   <v>       0.69950950      -0.06543354      -0.25477817 </v>
  </varray>
  <energy>
   <i name="e_fr_energy">    -35.53583453 </i>
   <i name="e_wo_entrp">    -35.54743034 </i>
   <i name="e_0_energy">    -35.53969980 </i>
  </energy>
  <time name="totalsc">    3.05    3.07</time>
 </calculation>
 <calculation>
  <scstep>
   <time name="dav">    0.08    0.08</time>
   <time name="total">    0.24    0.24</time>
   <energy>
    <i name="alphaZ">      0.83102696 </i>
    <i name="ewald">    196.46636789 </i>
    <i name="hartreedc">   -476.87587286 </i>
    <i name="XCdc">     38.61760868 </i>
    <i name="pawpsdc">    144.08605723 </i>
    <i name="pawaedc">   -147.36870143 </i>
    <i name="eentropy">      0.01159581 </i>
    <i name="bandstr">   -138.72703218 </i>
    <i name="atom">    347.42308926 </i>
    <i name="e_fr_energy">    -35.53586064 </i>
    <i name="e_wo_entrp">    -35.54745645 </i>
    <i name="e_0_energy">    -35.53972591 </i>
   </energy>
  </scstep>
  <scstep>
   <time name="dav">    0.07    0.07</time>
   <time name="total">    0.23    0.24</time>
   <energy>
    <i name="alphaZ">      0.83102696 </i>
    <i name="ewald">    196.46636789 </i>
    <i name="hartreedc">   -476.87666866 </i>
    <i name="XCdc">     38.61765564 </i>
    <i name="pawpsdc">    144.08499110 </i>
    <i name="pawaedc">   -147.36765442 </i>
    <i name="eentropy">      0.01159581 </i>
    <i name="bandstr">   -138.72626786 </i>
    <i name="atom">    347.42308926 </i>
    <i name="e_fr_energy">    -35.53586427 </i>
    <i name="e_wo_entrp">    -35.54746009 </i>
    <i name="e_0_energy">    -35.53972955 </i>
   </energy>
  </scstep>
  <structure>
   <crystal>
    <varray name="basis" >
     <v>       9.00000000       0.00000000       0.00000000 </v>
     <v>       0.00000000       9.00000000       0.00000000 </v>
     <v>       0.00000000       0.00000000       9.00000000 </v>
    </varray>
    <i name="volume">    729.00000000 </i>
    <varray name="rec_basis" >
     <v>       0.11111111       0.00000000       0.00000000 </v>
     <v>       0.00000000       0.11111111       0.00000000 </v>
     <v>       0.00000000       0.00000000       0.11111111 </v>
    </varray>
   </crystal>
   <varray name="positions" >
    <v>       0.56998866       0.49792507       0.50847118 </v>
    <v>       0.42594546       0.49940625       0.48993146 </v>
    <v>       0.62769870       0.61240076       0.52366080 </v>
    <v>       0.62475789       0.38227359       0.52305235 </v>
    <v>       0.37562380       0.62265803       0.49068530 </v>
    <v>       0.37269844       0.37664334       0.49054884 </v>
   </varray>
  </structure>
  <varray name="forces" >
   <v>       2.71701788      -0.01565273       0.89015116 </v>
   <v>      -2.42788054      -0.03664754       0.20993449 </v>
   <v>      -0.27804516      -2.28644542      -0.31048854 </v>
   <v>      -0.17569008       2.24938712      -0.28403576 </v>
   <v>       0.01893219      -3.11523846      -0.25304688 </v>
   <v>       0.14566571       3.20459703      -0.25251448 </v>
  </varray>
  <varray name="stress" >
   <v>       5.55937049      -0.59977988       0.69907920 </v>
   <v>      -0.59977988     -25.89760362      -0.06527436 </v>
   <v>       0.69907921      -0.06527436      -0.25015275 </v>
  </varray>
  <energy>
   <i name="e_fr_energy">    -35.53586427 </i>
   <i name="e_wo_entrp">    -35.54746009 </i>
   <i name="e_0_energy">    -35.53972955 </i>
  </energy>
  <time name="totalsc">    0.80    0.81</time>
 </calculation>
 <calculation>
  <scstep>
   <time name="dav">    0.05    0.05</time>
   <time name="total">    0.21    0.21</time>
   <energy>
    <i name="alphaZ">      0.83102696 </i>
    <i name="ewald">    191.08043869 </i>
    <i name="hartreedc">   -470.49479174 </i>
    <i name="XCdc">     38.67157175 </i>
    <i name="pawpsdc">    144.08319651 </i>
    <i name="pawaedc">   -147.36587972 </i>
    <i name="eentropy">      0.01159581 </i>
    <i name="bandstr">   -140.43713048 </i>
    <i name="atom">    347.42308926 </i>
    <i name="e_fr_energy">    -36.19688296 </i>
    <i name="e_wo_entrp">    -36.20847877 </i>
    <i name="e_0_energy">    -36.20074823 </i>
   </energy>
  </scstep>
  <scstep>
   <time name="dav">    0.07    0.07</time>
   <time name="total">    0.23    0.23</time>
   <energy>
    <i name="e_fr_energy">    -36.24112013 </i>
    <i name="e_wo_entrp">    -36.25271594 </i>
    <i name="e_0_energy">    -36.24498540 </i>
   </energy>
  </scstep>
  <scstep>
   <time name="dav">    0.08    0.08</time>
   <time name="total">    0.25    0.25</time>
   <energy>
    <i name="e_fr_energy">    -36.22113863 </i>
    <i name="e_wo_entrp">    -36.23273444 </i>
    <i name="e_0_energy">    -36.22500390 </i>
   </energy>
  </scstep>
  <scstep>
   <time name="dav">    0.07    0.07</time>
   <time name="total">    0.24    0.25</time>
   <energy>
    <i name="e_fr_energy">    -36.22382440 </i>
    <i name="e_wo_entrp">    -36.23542021 </i>
    <i name="e_0_energy">    -36.22768967 </i>
   </energy>
  </scstep>
  <scstep>
   <time name="dav">    0.09    0.09</time>
   <time name="total">    0.25    0.26</time>
   <energy>
    <i name="e_fr_energy">    -36.22484568 </i>
    <i name="e_wo_entrp">    -36.23644149 </i>
    <i name="e_0_energy">    -36.22871095 </i>
   </energy>
  </scstep>
  <scstep>
   <time name="dav">    0.05    0.05</time>
   <time name="total">    0.20    0.21</time>
   <energy>
    <i name="e_fr_energy">    -36.22566580 </i>
    <i name="e_wo_entrp">    -36.23726161 </i>
    <i name="e_0_energy">    -36.22953107 </i>
   </energy>
  </scstep>
  <scstep>
   <time name="dav">    0.06    0.06</time>
   <time name="total">    0.21    0.21</time>
   <energy>
    <i name="e_fr_energy">    -36.22615019 </i>
    <i name="e_wo_entrp">    -36.23774600 </i>
    <i name="e_0_energy">    -36.23001546 </i>
   </energy>
  </scstep>
  <scstep>
   <time name="dav">    0.07    0.07</time>
   <time name="total">    0.24    0.24</time>
   <energy>
    <i name="e_fr_energy">    -36.22699177 </i>
    <i name="e_wo_entrp">    -36.23858758 </i>
    <i name="e_0_energy">    -36.23085704 </i>
   </energy>
  </scstep>
  <scstep>
   <time name="dav">    0.05    0.05</time>
   <time name="total">    0.22    0.23</time>
   <energy>
    <i name="e_fr_energy">    -36.22739373 </i>
    <i name="e_wo_entrp">    -36.23898954 </i>
    <i name="e_0_energy">    -36.23125900 </i>
   </energy>
  </scstep>
  <scstep>
   <time name="dav">    0.06    0.07</time>
   <time name="total">    0.22    0.24</time>
   <energy>
    <i name="e_fr_energy">    -36.22754686 </i>
    <i name="e_wo_entrp">    -36.23914267 </i>
    <i name="e_0_energy">    -36.23141213 </i>
   </energy>
  </scstep>
  <scstep>
   <time name="dav">    0.07    0.07</time>
   <time name="total">    0.23    0.23</time>
   <energy>
    <i name="alphaZ">      0.83102696 </i>
    <i name="ewald">    191.08043869 </i>
    <i name="hartreedc">   -471.07773321 </i>
    <i name="XCdc">     38.75530469 </i>
    <i name="pawpsdc">    143.64944525 </i>
    <i name="pawaedc">   -146.95199134 </i>
    <i name="eentropy">      0.01159581 </i>
    <i name="bandstr">   -139.94876641 </i>
    <i name="atom">    347.42308926 </i>
    <i name="e_fr_energy">    -36.22759029 </i>
    <i name="e_wo_entrp">    -36.23918610 </i>
    <i name="e_0_energy">    -36.23145556 </i>
   </energy>
  </scstep>
  <structure>
   <crystal>
    <varray name="basis" >
     <v>       9.00000000       0.00000000       0.00000000 </v>
     <v>       0.00000000       9.00000000       0.00000000 </v>
     <v>       0.00000000       0.00000000       9.00000000 </v>
    </varray>
    <i name="volume">    729.00000000 </i>
    <varray name="rec_basis" >
     <v>       0.11111111       0.00000000       0.00000000 </v>
     <v>       0.00000000       0.11111111       0.00000000 </v>
     <v>       0.00000000       0.00000000       0.11111111 </v>
    </varray>
   </crystal>
   <varray name="positions" >
    <v>       0.57514749       0.49836494       0.51160259 </v>
    <v>       0.41974677       0.49902844       0.49092908 </v>
    <v>       0.64120085       0.60239119       0.52428520 </v>
    <v>       0.63788029       0.39235654       0.52362854 </v>
    <v>       0.36299076       0.60849034       0.48804176 </v>
    <v>       0.35974678       0.39067560       0.48786277 </v>
   </varray>
  </structure>
  <varray name="forces" >
   <v>      -2.30580185      -0.11984573      -0.07720267 </v>
   <v>       3.12399861      -0.00442726       0.70007988 </v>
   <v>      -0.65273552      -0.82506532      -0.21413797 </v>
   <v>      -0.53621376       0.84203353      -0.18957043 </v>
   <v>       0.09790373      -1.04851017      -0.11440681 </v>
   <v>       0.27284879       1.15581495      -0.10476200 </v>
  </varray>
  <varray name="stress" >
   <v>     -12.92433451      -0.54667359      -1.74151864 </v>
   <v>      -0.54667359      -8.41645304      -0.05948498 </v>
   <v>      -1.74151864      -0.05948498      -0.46361976 </v>
  </varray>
  <energy>
   <i name="e_fr_energy">    -36.22759029 </i>
   <i name="e_wo_entrp">    -36.23918610 </i>
   <i name="e_0_energy">    -36.23145556 </i>
  </energy>
  <time name="totalsc">    2.88    2.92</time>
 </calculation>
 <calculation>
  <scstep>
   <time name="dav">    0.08    0.08</time>
   <time name="total">    0.27    0.27</time>
   <energy>
    <i name="alphaZ">      0.83102696 </i>
    <i name="ewald">    191.17669060 </i>
    <i name="hartreedc">   -471.20679358 </i>
    <i name="XCdc">     38.75401941 </i>
    <i name="pawpsdc">    143.64900595 </i>
    <i name="pawaedc">   -146.95155005 </i>
    <i name="eentropy">      0.01159581 </i>
    <i name="bandstr">   -139.91499075 </i>
    <i name="atom">    347.42308926 </i>
    <i name="e_fr_energy">    -36.22790640 </i>
    <i name="e_wo_entrp">    -36.23950221 </i>
    <i name="e_0_energy">    -36.23177167 </i>
   </energy>
  </scstep>
  <scstep>
   <time name="dav">    0.08    0.08</time>
   <time name="total">    0.25    0.25</time>
   <energy>
    <i name="alphaZ">      0.83102696 </i>
    <i name="ewald">    191.17669060 </i>
    <i name="hartreedc">   -471.21510766 </i>
    <i name="XCdc">     38.75361150 </i>
    <i name="pawpsdc">    143.64093560 </i>
    <i name="pawaedc">   -146.94328090 </i>
    <i name="eentropy">      0.01159581 </i>
    <i name="bandstr">   -139.90648015 </i>
    <i name="atom">    347.42308926 </i>
    <i name="e_fr_energy">    -36.22791898 </i>
    <i name="e_wo_entrp">    -36.23951479 </i>
    <i name="e_0_energy">    -36.23178425 </i>
   </energy>
  </scstep>
  <structure>
   <crystal>
    <varray name="basis" >
     <v>       9.00000000       0.00000000       0.00000000 </v>
     <v>       0.00000000       9.00000000       0.00000000 </v>
     <v>       0.00000000       0.00000000       9.00000000 </v>
    </varray>
    <i name="volume">    729.00000000 </i>
    <varray name="rec_basis" >
     <v>       0.11111111       0.00000000       0.00000000 </v>
     <v>       0.00000000       0.11111111       0.00000000 </v>
     <v>       0.00000000       0.00000000       0.11111111 </v>
    </varray>
   </crystal>
   <varray name="positions" >
    <v>       0.57503761       0.49835557       0.51153589 </v>
    <v>       0.41987880       0.49903648       0.49090784 </v>
    <v>       0.64091326       0.60260439       0.52427190 </v>
    <v>       0.63760079       0.39214178       0.52361626 </v>
    <v>       0.36325984       0.60879211       0.48809806 </v>
    <v>       0.36002265       0.39037671       0.48791999 </v>
   </varray>
  </structure>
  <varray name="forces" >
   <v>      -2.23029817      -0.11718065      -0.06138295 </v>
   <v>       3.03236521      -0.00553053       0.69246963 </v>
   <v>      -0.64531276      -0.85960277      -0.21581898 </v>
   <v>      -0.52863159       0.87529810      -0.19114505 </v>
   <v>       0.09871144      -1.10245303      -0.11679247 </v>
   <v>       0.27316586       1.20946888      -0.10733016 </v>
  </varray>
  <varray name="stress" >
   <v>     -12.64746985      -0.54766111      -1.70421063 </v>
   <v>      -0.54766110      -8.78772564      -0.05947127 </v>
   <v>      -1.70421063      -0.05947127      -0.45818373 </v>
  </varray>
  <energy>
   <i name="e_fr_energy">    -36.22791898 </i>
   <i name="e_wo_entrp">    -36.23951479 </i>
   <i name="e_0_energy">    -36.23178425 </i>
  </energy>
  <time name="totalsc">    0.83    0.84</time>
 </calculation>
 <calculation>
  <scstep>
   <time name="dav">    0.06    0.06</time>
   <time name="total">    0.23    0.23</time>
   <energy>
    <i name="alphaZ">      0.83102696 </i>
    <i name="ewald">    212.32046747 </i>
    <i name="hartreedc">   -485.39052189 </i>
    <i name="XCdc">     39.27640965 </i>
    <i name="pawpsdc">    143.61465788 </i>
    <i name="pawaedc">   -146.91676821 </i>
    <i name="eentropy">      0.01159581 </i>
    <i name="bandstr">   -147.47526891 </i>
    <i name="atom">    347.42308926 </i>
    <i name="e_fr_energy">    -36.30531198 </i>
    <i name="e_wo_entrp">    -36.31690779 </i>
    <i name="e_0_energy">    -36.30917725 </i>
   </energy>
  </scstep>
  <scstep>
   <time name="dav">    0.06    0.07</time>
   <time name="total">    0.24    0.24</time>
   <energy>
    <i name="e_fr_energy">    -36.30011712 </i>
    <i name="e_wo_entrp">    -36.31171293 </i>
    <i name="e_0_energy">    -36.30398239 </i>
   </energy>
  </scstep>
  <scstep>
   <time name="dav">    0.07    0.07</time>
   <time name="total">    0.24    0.24</time>
   <energy>
    <i name="e_fr_energy">    -36.29797161 </i>
    <i name="e_wo_entrp">    -36.30956742 </i>
    <i name="e_0_energy">    -36.30183688 </i>
   </energy>
  </scstep>
  <scstep>
   <time name="dav">    0.09    0.09</time>
   <time name="total">    0.27    0.27</time>
   <energy>
    <i name="e_fr_energy">    -36.28367489 </i>
    <i name="e_wo_entrp">    -36.29527070 </i>
    <i name="e_0_energy">    -36.28754016 </i>
   </energy>
  </scstep>
  <scstep>
   <time name="dav">    0.08    0.08</time>
   <time name="total">    0.26    0.26</time>
   <energy>
    <i name="e_fr_energy">    -36.28418055 </i>
    <i name="e_wo_entrp">    -36.29577636 </i>
    <i name="e_0_energy">    -36.28804582 </i>
   </energy>
  </scstep>
  <scstep>
   <time name="dav">    0.08    0.08</time>
   <time name="total">    0.25    0.25</time>
   <energy>
    <i name="e_fr_energy">    -36.28466666 </i>
    <i name="e_wo_entrp">    -36.29626247 </i>
    <i name="e_0_energy">    -36.28853193 </i>
   </energy>
  </scstep>
  <scstep>
   <time name="dav">    0.06    0.06</time>
   <time name="total">    0.24    0.24</time>
   <energy>
    <i name="e_fr_energy">    -36.28567367 </i>
    <i name="e_wo_entrp">    -36.29726948 </i>
    <i name="e_0_energy">    -36.28953894 </i>
   </energy>
  </scstep>
  <scstep>
   <time name="dav">    0.06    0.06</time>
   <time name="total">    0.22    0.22</time>
   <energy>
    <i name="e_fr_energy">    -36.28603495 </i>
    <i name="e_wo_entrp">    -36.29763076 </i>
    <i name="e_0_energy">    -36.28990022 </i>
   </energy>
  </scstep>
  <scstep>
   <time name="dav">    0.05    0.05</time>
   <time name="total">    0.21    0.21</time>
   <energy>
    <i name="e_fr_energy">    -36.28632860 </i>
    <i name="e_wo_entrp">    -36.29792441 </i>
    <i name="e_0_energy">    -36.29019387 </i>
   </energy>
  </scstep>
  <scstep>
   <time name="dav">    0.08    0.08</time>
   <time name="total">    0.23    0.23</time>
   <energy>
    <i name="alphaZ">      0.83102696 </i>
    <i name="ewald">    212.32046747 </i>
    <i name="hartreedc">   -490.37300057 </i>
    <i name="XCdc">     39.50636699 </i>
    <i name="pawpsdc">    160.30109673 </i>
    <i name="pawaedc">   -163.60864003 </i>
    <i name="eentropy">      0.01159581 </i>
    <i name="bandstr">   -142.69836046 </i>
    <i name="atom">    347.42308926 </i>
    <i name="e_fr_energy">    -36.28635786 </i>
    <i name="e_wo_entrp">    -36.29795367 </i>
    <i name="e_0_energy">    -36.29022313 </i>
   </energy>
  </scstep>
  <structure>
   <crystal>
    <varray name="basis" >
     <v>       9.00000000       0.00000000       0.00000000 </v>
     <v>       0.00000000       9.00000000       0.00000000 </v>
     <v>       0.00000000       0.00000000       9.00000000 </v>
    </varray>
    <i name="volume">    729.00000000 </i>
    <varray name="rec_basis" >
     <v>       0.11111111       0.00000000       0.00000000 </v>
     <v>       0.00000000       0.11111111       0.00000000 </v>
     <v>       0.00000000       0.00000000       0.11111111 </v>
    </varray>
   </crystal>
   <varray name="positions" >
    <v>       0.56957604       0.49814864       0.51280254 </v>
    <v>       0.42769098       0.49883780       0.49383564 </v>
    <v>       0.64502542       0.59481248       0.52380273 </v>
    <v>       0.64194661       0.40002412       0.52321172 </v>
    <v>       0.35762182       0.59816832       0.48643099 </v>
    <v>       0.35485208       0.40131569       0.48626631 </v>
   </varray>
  </structure>
  <varray name="forces" >
   <v>       4.11114796      -0.00198460       0.59407182 </v>
   <v>      -3.59886671       0.11013615      -0.33887490 </v>
   <v>      -1.01784582      -0.06480626      -0.17164534 </v>
   <v>      -0.84252174      -0.04758905      -0.14007763 </v>
   <v>       0.62979478       0.02910081       0.02636861 </v>
   <v>       0.71829152      -0.02485705       0.03015744 </v>
  </varray>
  <varray name="stress" >
   <v>       1.44899391      -0.48911070       0.25078775 </v>
   <v>      -0.48911070      -0.14835424      -0.06727334 </v>
   <v>       0.25078775      -0.06727334      -0.17886280 </v>
  </varray>
  <energy>
   <i name="e_fr_energy">    -36.28635786 </i>
   <i name="e_wo_entrp">    -36.29795367 </i>
   <i name="e_0_energy">    -36.29022313 </i>
  </energy>
  <time name="totalsc">    2.70    2.72</time>
 </calculation>
 <calculation>
  <scstep>
   <time name="dav">    0.06    0.06</time>
   <time name="total">    0.22    0.22</time>
   <energy>
    <i name="alphaZ">      0.83102696 </i>
    <i name="ewald">    203.10828262 </i>
    <i name="hartreedc">   -484.20953221 </i>
    <i name="XCdc">     39.28492179 </i>
    <i name="pawpsdc">    160.29609627 </i>
    <i name="pawaedc">   -163.60357435 </i>
    <i name="eentropy">      0.01159581 </i>
    <i name="bandstr">   -139.56171704 </i>
    <i name="atom">    347.42308926 </i>
    <i name="e_fr_energy">    -36.41981088 </i>
    <i name="e_wo_entrp">    -36.43140670 </i>
    <i name="e_0_energy">    -36.42367616 </i>
   </energy>
  </scstep>
  <scstep>
   <time name="dav">    0.08    0.08</time>
   <time name="total">    0.23    0.23</time>
   <energy>
    <i name="e_fr_energy">    -36.41393223 </i>
    <i name="e_wo_entrp">    -36.42552804 </i>
    <i name="e_0_energy">    -36.41779750 </i>
   </energy>
  </scstep>
  <scstep>
   <time name="dav">    0.08    0.08</time>
   <time name="total">    0.23    0.23</time>
   <energy>
    <i name="e_fr_energy">    -36.41164035 </i>
    <i name="e_wo_entrp">    -36.42323616 </i>
    <i name="e_0_energy">    -36.41550562 </i>
   </energy>
  </scstep>
  <scstep>
   <time name="dav">    0.08    0.08</time>
   <time name="total">    0.23    0.30</time>
   <energy>
    <i name="e_fr_energy">    -36.41136313 </i>
    <i name="e_wo_entrp">    -36.42295894 </i>
    <i name="e_0_energy">    -36.41522840 </i>
   </energy>
  </scstep>
  <scstep>
   <time name="dav">    0.08    0.08</time>
   <time name="total">    0.25    0.25</time>
   <energy>
    <i name="e_fr_energy">    -36.41153194 </i>
    <i name="e_wo_entrp">    -36.42312775 </i>
    <i name="e_0_energy">    -36.41539721 </i>
   </energy>
  </scstep>
  <scstep>
   <time name="dav">    0.06    0.06</time>
   <time name="total">    0.19    0.19</time>
   <energy>
    <i name="alphaZ">      0.83102696 </i>
    <i name="ewald">    203.10828262 </i>
    <i name="hartreedc">   -482.14299079 </i>
    <i name="XCdc">     39.18892973 </i>
    <i name="pawpsdc">    152.67716268 </i>
    <i name="pawaedc">   -155.98280528 </i>
    <i name="eentropy">      0.01159581 </i>
    <i name="bandstr">   -141.52592091 </i>
    <i name="atom">    347.42308926 </i>
    <i name="e_fr_energy">    -36.41162992 </i>
    <i name="e_wo_entrp">    -36.42322573 </i>
    <i name="e_0_energy">    -36.41549519 </i>
   </energy>
  </scstep>
  <structure>
   <crystal>
    <varray name="basis" >
     <v>       9.00000000       0.00000000       0.00000000 </v>
     <v>       0.00000000       9.00000000       0.00000000 </v>
     <v>       0.00000000       0.00000000       9.00000000 </v>
    </varray>
    <i name="volume">    729.00000000 </i>
    <varray name="rec_basis" >
     <v>       0.11111111       0.00000000       0.00000000 </v>
     <v>       0.00000000       0.11111111       0.00000000 </v>
     <v>       0.00000000       0.00000000       0.11111111 </v>
    </varray>
   </crystal>
   <varray name="positions" >
    <v>       0.57195802       0.49823889       0.51225011 </v>
    <v>       0.42428382       0.49892445       0.49255872 </v>
    <v>       0.64323196       0.59821080       0.52400735 </v>
    <v>       0.64005125       0.39658636       0.52338816 </v>
    <v>       0.36008076       0.60280172       0.48715806 </v>
    <v>       0.35710715       0.39654482       0.48698753 </v>
   </varray>
  </structure>
  <varray name="forces" >
   <v>       0.81608103      -0.04611973       0.24044399 </v>
   <v>      -0.15091243       0.05569109       0.18861952 </v>
   <v>      -0.85006686      -0.40439804      -0.19234949 </v>
   <v>      -0.70236738       0.34396202      -0.16306244 </v>
   <v>       0.37920038      -0.44243852      -0.04039957 </v>
   <v>       0.50806526       0.49330318      -0.03325201 </v>
  </varray>
  <varray name="stress" >
   <v>      -5.68438441      -0.51010549      -0.73506890 </v>
   <v>      -0.51010549      -3.59850022      -0.06701950 </v>
   <v>      -0.73506890      -0.06701950      -0.31328579 </v>
  </varray>
  <energy>
   <i name="e_fr_energy">    -36.41162992 </i>
   <i name="e_wo_entrp">    -36.42322573 </i>
   <i name="e_0_energy">    -36.41549519 </i>
  </energy>
  <time name="totalsc">    2.65    2.79</time>
 </calculation>
 <calculation>
  <scstep>
   <time name="dav">    0.08    0.08</time>
   <time name="total">    0.25    0.33</time>
   <energy>
    <i name="alphaZ">      0.83102696 </i>
    <i name="ewald">    208.26883622 </i>
    <i name="hartreedc">   -484.96104840 </i>
    <i name="XCdc">     39.34720112 </i>
    <i name="pawpsdc">    152.66012070 </i>
    <i name="pawaedc">   -155.96562795 </i>
    <i name="eentropy">      0.01159581 </i>
    <i name="bandstr">   -144.05681831 </i>
    <i name="atom">    347.42308926 </i>
    <i name="e_fr_energy">    -36.44162458 </i>
    <i name="e_wo_entrp">    -36.45322039 </i>
    <i name="e_0_energy">    -36.44548985 </i>
   </energy>
  </scstep>
  <scstep>
   <time name="dav">    0.08    0.08</time>
   <time name="total">    0.26    0.26</time>
   <energy>
    <i name="e_fr_energy">    -36.43950482 </i>
    <i name="e_wo_entrp">    -36.45110064 </i>
    <i name="e_0_energy">    -36.44337009 </i>
   </energy>
  </scstep>
  <scstep>
   <time name="dav">    0.05    0.05</time>
   <time name="total">    0.22    0.22</time>
   <energy>
    <i name="e_fr_energy">    -36.43804672 </i>
    <i name="e_wo_entrp">    -36.44964253 </i>
    <i name="e_0_energy">    -36.44191199 </i>
   </energy>
  </scstep>
  <scstep>
   <time name="dav">    0.08    0.08</time>
   <time name="total">    0.26    0.26</time>
   <energy>
    <i name="e_fr_energy">    -36.43783151 </i>
    <i name="e_wo_entrp">    -36.44942732 </i>
    <i name="e_0_energy">    -36.44169678 </i>
   </energy>
  </scstep>
  <scstep>
   <time name="dav">    0.07    0.07</time>
   <time name="total">    0.24    0.24</time>
   <energy>
    <i name="alphaZ">      0.83102696 </i>
    <i name="ewald">    208.26883622 </i>
    <i name="hartreedc">   -486.56818109 </i>
    <i name="XCdc">     39.44969335 </i>
    <i name="pawpsdc">    157.51729552 </i>
    <i name="pawaedc">   -160.83417842 </i>
    <i name="eentropy">      0.01159581 </i>
    <i name="bandstr">   -142.53708617 </i>
    <i name="atom">    347.42308926 </i>
    <i name="e_fr_energy">    -36.43790856 </i>
    <i name="e_wo_entrp">    -36.44950437 </i>
    <i name="e_0_energy">    -36.44177383 </i>
   </energy>
  </scstep>
  <structure>
   <crystal>
    <varray name="basis" >
     <v>       9.00000000       0.00000000       0.00000000 </v>
     <v>       0.00000000       9.00000000       0.00000000 </v>
     <v>       0.00000000       0.00000000       9.00000000 </v>
    </varray>
    <i name="volume">    729.00000000 </i>
    <varray name="rec_basis" >
     <v>       0.11111111       0.00000000       0.00000000 </v>
     <v>       0.00000000       0.11111111       0.00000000 </v>
     <v>       0.00000000       0.00000000       0.11111111 </v>
    </varray>
   </crystal>
   <varray name="positions" >
    <v>       0.57398278       0.49806631       0.51317105 </v>
    <v>       0.42467665       0.49908225       0.49349933 </v>
    <v>       0.64094502       0.59602330       0.52333200 </v>
    <v>       0.63826861       0.39858849       0.52281487 </v>
    <v>       0.36067189       0.60017170       0.48683929 </v>
    <v>       0.35816800       0.39937500       0.48669340 </v>
   </varray>
  </structure>
  <varray name="forces" >
   <v>      -1.30716965      -0.00189325      -0.11501929 </v>
   <v>       1.11266548       0.01491185       0.24894891 </v>
   <v>      -0.08625761       0.53151103      -0.04712276 </v>
   <v>      -0.01246753      -0.58654942      -0.03121524 </v>
   <v>       0.11174908       0.23853690      -0.02898606 </v>
   <v>       0.18148023      -0.19651712      -0.02660557 </v>
  </varray>
  <varray name="stress" >
   <v>      -4.91794471      -0.25075950      -0.60220483 </v>
   <v>      -0.25075950       2.77478756      -0.03198500 </v>
   <v>      -0.60220483      -0.03198500      -0.32805160 </v>
  </varray>
  <energy>
   <i name="e_fr_energy">    -36.43790856 </i>
   <i name="e_wo_entrp">    -36.44950437 </i>
   <i name="e_0_energy">    -36.44177383 </i>
  </energy>
  <time name="totalsc">    1.54    1.63</time>
 </calculation>
 <calculation>
  <scstep>
   <time name="dav">    0.08    0.08</time>
   <time name="total">    0.26    0.26</time>
   <energy>
    <i name="alphaZ">      0.83102696 </i>
    <i name="ewald">    206.65553337 </i>
    <i name="hartreedc">   -485.67091854 </i>
    <i name="XCdc">     39.39863504 </i>
    <i name="pawpsdc">    157.50173594 </i>
    <i name="pawaedc">   -160.81848327 </i>
    <i name="eentropy">      0.01159581 </i>
    <i name="bandstr">   -141.77759412 </i>
    <i name="atom">    347.42308926 </i>
    <i name="e_fr_energy">    -36.44537954 </i>
    <i name="e_wo_entrp">    -36.45697535 </i>
    <i name="e_0_energy">    -36.44924481 </i>
   </energy>
  </scstep>
  <scstep>
   <time name="dav">    0.07    0.07</time>
   <time name="total">    0.26    0.26</time>
   <energy>
    <i name="e_fr_energy">    -36.44508353 </i>
    <i name="e_wo_entrp">    -36.45667934 </i>
    <i name="e_0_energy">    -36.44894880 </i>
   </energy>
  </scstep>
  <scstep>
   <time name="dav">    0.07    0.07</time>
   <time name="total">    0.25    0.25</time>
   <energy>
    <i name="e_fr_energy">    -36.44492759 </i>
    <i name="e_wo_entrp">    -36.45652340 </i>
    <i name="e_0_energy">    -36.44879286 </i>
   </energy>
  </scstep>
  <scstep>
   <time name="dav">    0.08    0.08</time>
   <time name="total">    0.25    0.25</time>
   <energy>
    <i name="alphaZ">      0.83102696 </i>
    <i name="ewald">    206.65553337 </i>
    <i name="hartreedc">   -485.20644735 </i>
    <i name="XCdc">     39.36847291 </i>
    <i name="pawpsdc">    156.05411281 </i>
    <i name="pawaedc">   -159.36745713 </i>
    <i name="eentropy">      0.01159581 </i>
    <i name="bandstr">   -142.21484867 </i>
    <i name="atom">    347.42308926 </i>
    <i name="e_fr_energy">    -36.44492204 </i>
    <i name="e_wo_entrp">    -36.45651785 </i>
    <i name="e_0_energy">    -36.44878731 </i>
   </energy>
  </scstep>
  <structure>
   <crystal>
    <varray name="basis" >
     <v>       9.00000000       0.00000000       0.00000000 </v>
     <v>       0.00000000       9.00000000       0.00000000 </v>
     <v>       0.00000000       0.00000000       9.00000000 </v>
    </varray>
    <i name="volume">    729.00000000 </i>
    <varray name="rec_basis" >
     <v>       0.11111111       0.00000000       0.00000000 </v>
     <v>       0.00000000       0.11111111       0.00000000 </v>
     <v>       0.00000000       0.00000000       0.11111111 </v>
[...]
    <i name="XCdc">     39.48666998 </i>
    <i name="pawpsdc">    158.49053806 </i>
    <i name="pawaedc">   -161.80390489 </i>
    <i name="eentropy">      0.01159581 </i>
    <i name="bandstr">   -142.48707388 </i>
    <i name="atom">    347.42308926 </i>
    <i name="e_fr_energy">    -36.48082315 </i>
    <i name="e_wo_entrp">    -36.49241896 </i>
    <i name="e_0_energy">    -36.48468842 </i>
   </energy>
  </scstep>
  <scstep>
   <time name="dav">    0.06    0.06</time>
   <time name="total">    0.23    0.23</time>
   <energy>
    <i name="alphaZ">      0.83102696 </i>
    <i name="ewald">    211.00543658 </i>
    <i name="hartreedc">   -489.46371523 </i>
    <i name="XCdc">     39.48786371 </i>
    <i name="pawpsdc">    158.55276148 </i>
    <i name="pawaedc">   -161.86618422 </i>
    <i name="eentropy">      0.01159581 </i>
    <i name="bandstr">   -142.46269925 </i>
    <i name="atom">    347.42308926 </i>
    <i name="e_fr_energy">    -36.48082491 </i>
    <i name="e_wo_entrp">    -36.49242072 </i>
    <i name="e_0_energy">    -36.48469018 </i>
   </energy>
  </scstep>
  <structure>
   <crystal>
    <varray name="basis" >
     <v>       9.00000000       0.00000000       0.00000000 </v>
     <v>       0.00000000       9.00000000       0.00000000 </v>
     <v>       0.00000000       0.00000000       9.00000000 </v>
    </varray>
    <i name="volume">    729.00000000 </i>
    <varray name="rec_basis" >
     <v>       0.11111111       0.00000000       0.00000000 </v>
     <v>       0.00000000       0.11111111       0.00000000 </v>
     <v>       0.00000000       0.00000000       0.11111111 </v>
    </varray>
   </crystal>
   <varray name="positions" >
    <v>       0.57291619       0.49780285       0.51413040 </v>
    <v>       0.42604508       0.49931338       0.49504285 </v>
    <v>       0.63659927       0.59957905       0.52212623 </v>
    <v>       0.63459273       0.39476445       0.52184653 </v>
    <v>       0.36424333       0.60218649       0.48671146 </v>
    <v>       0.36231634       0.39766081       0.48649245 </v>
   </varray>
  </structure>
  <varray name="forces" >
   <v>      -0.01965368       0.00276640      -0.01866847 </v>
   <v>       0.01514253      -0.00261078      -0.01264971 </v>
   <v>       0.00070493      -0.03895161       0.00792244 </v>
   <v>      -0.00274595       0.04184868       0.00859412 </v>
   <v>       0.00644279      -0.02266644       0.00823028 </v>
   <v>       0.00010938       0.01961375       0.00657132 </v>
  </varray>
  <varray name="stress" >
   <v>      -0.28484194       0.02294762      -0.01153969 </v>
   <v>       0.02294762      -0.42596828       0.00305316 </v>
   <v>      -0.01153969       0.00305316      -0.15873404 </v>
  </varray>
  <energy>
   <i name="e_fr_energy">    -36.48082491 </i>
   <i name="e_wo_entrp">    -36.49242072 </i>
   <i name="e_0_energy">    -36.48469018 </i>
  </energy>
  <time name="totalsc">    0.78    0.79</time>
  <eigenvalues>
   <array>
    <dimension dim="1">band</dimension>
    <dimension dim="2">kpoint</dimension>
    <dimension dim="3">spin</dimension>
    <field>eigene</field>
    <field>occ</field>
    <set>
     <set comment="spin 1">
      <set comment="kpoint 1">
       <r>  -19.0518    1.0000 </r>
       <r>  -14.5358    1.0000 </r>
       <r>  -11.6560    1.0000 </r>
       <r>  -10.3836    1.0000 </r>
       <r>   -8.8141    1.0000 </r>
       <r>   -6.7901    1.0000 </r>
       <r>   -1.1195    0.0000 </r>
       <r>   -0.7485    0.0000 </r>
       <r>    0.5889    0.0000 </r>
       <r>    0.6221    0.0000 </r>
       <r>    0.8992    0.0000 </r>
       <r>    1.1176    0.0000 </r>
      </set>
     </set>
    </set>
   </array>
  </eigenvalues>
  <separator name="orbital magnetization" >
   <v name="MAGDIPOLOUT">      0.00000000      0.00000000      0.00000000</v>
  </separator>
  <dos>
   <i name="efermi">     -6.62175224 </i>
   <total>
    <array>
     <dimension dim="1">gridpoints</dimension>
     <dimension dim="2">spin</dimension>
     <field>energy</field>
     <field>total</field>
     <field>integrated</field>
     <set>
      <set comment="spin 1">
       <r>   -21.0518     0.0000     0.0000 </r>
       <r>   -20.9712     0.0000     0.0000 </r>
       <r>   -20.8906     0.0000     0.0000 </r>
       <r>   -20.8101     0.0000     0.0000 </r>
       <r>   -20.7295    -0.0000    -0.0000 </r>
       <r>   -20.6489    -0.0000    -0.0000 </r>
       <r>   -20.5684    -0.0000    -0.0000 </r>
       <r>   -20.4878    -0.0000    -0.0000 </r>
       <r>   -20.4073    -0.0000    -0.0000 </r>
       <r>   -20.3267    -0.0000    -0.0000 </r>
       <r>   -20.2461    -0.0000    -0.0000 </r>
       <r>   -20.1656    -0.0000    -0.0000 </r>
       <r>   -20.0850    -0.0000    -0.0000 </r>
       <r>   -20.0044    -0.0000    -0.0000 </r>
       <r>   -19.9239    -0.0000    -0.0000 </r>
       <r>   -19.8433    -0.0000    -0.0000 </r>
       <r>   -19.7627    -0.0001    -0.0000 </r>
       <r>   -19.6822    -0.0009    -0.0001 </r>
       <r>   -19.6016    -0.0078    -0.0007 </r>
       <r>   -19.5210    -0.0468    -0.0045 </r>
       <r>   -19.4405    -0.1816    -0.0191 </r>
       <r>   -19.3599    -0.4035    -0.0516 </r>
       <r>   -19.2793    -0.2073    -0.0683 </r>
       <r>   -19.1988     1.5547     0.0569 </r>
       <r>   -19.1182     5.1341     0.4706 </r>
       <r>   -19.0377     8.0498     1.1191 </r>
       <r>   -18.9571     7.3377     1.7103 </r>
       <r>   -18.8765     3.7715     2.0141 </r>
       <r>   -18.7960     0.6946     2.0701 </r>
       <r>   -18.7154    -0.3895     2.0387 </r>
       <r>   -18.6348    -0.3307     2.0120 </r>
       <r>   -18.5543    -0.1191     2.0024 </r>
       <r>   -18.4737    -0.0262     2.0003 </r>
       <r>   -18.3931    -0.0038     2.0000 </r>
       <r>   -18.3126    -0.0004     2.0000 </r>
       <r>   -18.2320    -0.0000     2.0000 </r>
       <r>   -18.1514    -0.0000     2.0000 </r>
       <r>   -18.0709    -0.0000     2.0000 </r>
       <r>   -17.9903    -0.0000     2.0000 </r>
       <r>   -17.9098    -0.0000     2.0000 </r>
       <r>   -17.8292    -0.0000     2.0000 </r>
       <r>   -17.7486     0.0000     2.0000 </r>
       <r>   -17.6681     0.0000     2.0000 </r>
       <r>   -17.5875     0.0000     2.0000 </r>
       <r>   -17.5069     0.0000     2.0000 </r>
       <r>   -17.4264     0.0000     2.0000 </r>
       <r>   -17.3458     0.0000     2.0000 </r>
       <r>   -17.2652     0.0000     2.0000 </r>
       <r>   -17.1847     0.0000     2.0000 </r>
       <r>   -17.1041     0.0000     2.0000 </r>
       <r>   -17.0235     0.0000     2.0000 </r>
       <r>   -16.9430     0.0000     2.0000 </r>
       <r>   -16.8624     0.0000     2.0000 </r>
       <r>   -16.7818     0.0000     2.0000 </r>
       <r>   -16.7013     0.0000     2.0000 </r>
       <r>   -16.6207     0.0000     2.0000 </r>
       <r>   -16.5402     0.0000     2.0000 </r>
       <r>   -16.4596     0.0000     2.0000 </r>
       <r>   -16.3790     0.0000     2.0000 </r>
       <r>   -16.2985     0.0000     2.0000 </r>
       <r>   -16.2179     0.0000     2.0000 </r>
       <r>   -16.1373    -0.0000     2.0000 </r>
       <r>   -16.0568    -0.0000     2.0000 </r>
       <r>   -15.9762    -0.0000     2.0000 </r>
       <r>   -15.8956    -0.0000     2.0000 </r>
       <r>   -15.8151    -0.0000     2.0000 </r>
       <r>   -15.7345    -0.0000     2.0000 </r>
       <r>   -15.6539    -0.0000     2.0000 </r>
       <r>   -15.5734    -0.0000     2.0000 </r>
       <r>   -15.4928    -0.0000     2.0000 </r>
       <r>   -15.4123    -0.0000     2.0000 </r>
       <r>   -15.3317    -0.0000     2.0000 </r>
       <r>   -15.2511    -0.0001     2.0000 </r>
       <r>   -15.1706    -0.0008     1.9999 </r>
       <r>   -15.0900    -0.0070     1.9994 </r>
       <r>   -15.0094    -0.0429     1.9959 </r>
       <r>   -14.9289    -0.1709     1.9821 </r>
       <r>   -14.8483    -0.3941     1.9504 </r>
       <r>   -14.7677    -0.2469     1.9305 </r>
       <r>   -14.6872     1.4045     2.0437 </r>
       <r>   -14.6066     4.9245     2.4404 </r>
       <r>   -14.5260     7.9699     3.0825 </r>
       <r>   -14.4455     7.4757     3.6848 </r>
       <r>   -14.3649     3.9797     4.0054 </r>
       <r>   -14.2843     0.8095     4.0706 </r>
       <r>   -14.2038    -0.3720     4.0406 </r>
       <r>   -14.1232    -0.3433     4.0130 </r>
       <r>   -14.0427    -0.1276     4.0027 </r>
       <r>   -13.9621    -0.0287     4.0004 </r>
       <r>   -13.8815    -0.0043     4.0000 </r>
       <r>   -13.8010    -0.0004     4.0000 </r>
       <r>   -13.7204    -0.0000     4.0000 </r>
       <r>   -13.6398    -0.0000     4.0000 </r>
       <r>   -13.5593    -0.0000     4.0000 </r>
       <r>   -13.4787    -0.0000     4.0000 </r>
       <r>   -13.3981    -0.0000     4.0000 </r>
       <r>   -13.3176    -0.0000     4.0000 </r>
       <r>   -13.2370    -0.0000     4.0000 </r>
       <r>   -13.1564    -0.0000     4.0000 </r>
       <r>   -13.0759    -0.0000     4.0000 </r>
       <r>   -12.9953    -0.0000     4.0000 </r>
       <r>   -12.9148    -0.0000     4.0000 </r>
       <r>   -12.8342    -0.0000     4.0000 </r>
       <r>   -12.7536    -0.0000     4.0000 </r>
       <r>   -12.6731    -0.0000     4.0000 </r>
       <r>   -12.5925    -0.0000     4.0000 </r>
       <r>   -12.5119    -0.0000     4.0000 </r>
       <r>   -12.4314    -0.0000     4.0000 </r>
       <r>   -12.3508    -0.0001     4.0000 </r>
       <r>   -12.2702    -0.0014     3.9999 </r>
       <r>   -12.1897    -0.0116     3.9989 </r>
       <r>   -12.1091    -0.0636     3.9938 </r>
       <r>   -12.0285    -0.2245     3.9757 </r>
       <r>   -11.9480    -0.4284     3.9412 </r>
       <r>   -11.8674    -0.0175     3.9398 </r>
       <r>   -11.7868     2.1635     4.1141 </r>
       <r>   -11.7063     5.8912     4.5887 </r>
       <r>   -11.6257     8.2418     5.2527 </r>
       <r>   -11.5452     6.7513     5.7966 </r>
       <r>   -11.4646     3.0219     6.0401 </r>
       <r>   -11.3840     0.3249     6.0663 </r>
       <r>   -11.3035    -0.4276     6.0318 </r>
       <r>   -11.2229    -0.2828     6.0090 </r>
       <r>   -11.1423    -0.0911     6.0017 </r>
       <r>   -11.0618    -0.0186     6.0002 </r>
       <r>   -10.9812    -0.0047     5.9998 </r>
       <r>   -10.9006    -0.0172     5.9984 </r>
       <r>   -10.8201    -0.0860     5.9915 </r>
       <r>   -10.7395    -0.2728     5.9695 </r>
       <r>   -10.6589    -0.4309     5.9348 </r>
       <r>   -10.5784     0.2584     5.9556 </r>
       <r>   -10.4978     2.8707     6.1869 </r>
       <r>   -10.4173     6.6153     6.7199 </r>
       <r>   -10.3367     8.2606     7.3854 </r>
       <r>   -10.2561     6.0438     7.8723 </r>
       <r>   -10.1756     2.3008     8.0576 </r>
       <r>   -10.0950     0.0315     8.0602 </r>
       <r>   -10.0144    -0.4311     8.0255 </r>
       <r>    -9.9339    -0.2340     8.0066 </r>
       <r>    -9.8533    -0.0677     8.0011 </r>
       <r>    -9.7727    -0.0125     8.0001 </r>
       <r>    -9.6922    -0.0016     8.0000 </r>
       <r>    -9.6116    -0.0001     8.0000 </r>
       <r>    -9.5310    -0.0001     8.0000 </r>
       <r>    -9.4505    -0.0007     7.9999 </r>
       <r>    -9.3699    -0.0067     7.9994 </r>
       <r>    -9.2894    -0.0415     7.9960 </r>
       <r>    -9.2088    -0.1669     7.9826 </r>
       <r>    -9.1282    -0.3902     7.9512 </r>
       <r>    -9.0477    -0.2608     7.9302 </r>
       <r>    -8.9671     1.3487     8.0388 </r>
       <r>    -8.8865     4.8439     8.4291 </r>
       <r>    -8.8060     7.9362     9.0684 </r>
       <r>    -8.7254     7.5260     9.6748 </r>
       <r>    -8.6448     4.0599    10.0018 </r>
       <r>    -8.5643     0.8552    10.0707 </r>
       <r>    -8.4837    -0.3644    10.0414 </r>
       <r>    -8.4031    -0.3480    10.0134 </r>
       <r>    -8.3226    -0.1310    10.0028 </r>
       <r>    -8.2420    -0.0297    10.0004 </r>
       <r>    -8.1614    -0.0045    10.0000 </r>
       <r>    -8.0809    -0.0005    10.0000 </r>
       <r>    -8.0003    -0.0000    10.0000 </r>
       <r>    -7.9198    -0.0000    10.0000 </r>
       <r>    -7.8392    -0.0000    10.0000 </r>
       <r>    -7.7586    -0.0000    10.0000 </r>
       <r>    -7.6781    -0.0000    10.0000 </r>
       <r>    -7.5975    -0.0000    10.0000 </r>
       <r>    -7.5169    -0.0000    10.0000 </r>
       <r>    -7.4364    -0.0006    10.0000 </r>
       <r>    -7.3558    -0.0053     9.9995 </r>
       <r>    -7.2752    -0.0340     9.9968 </r>
       <r>    -7.1947    -0.1445     9.9852 </r>
       <r>    -7.1141    -0.3655     9.9557 </r>
       <r>    -7.0335    -0.3302     9.9291 </r>
       <r>    -6.9530     1.0387    10.0128 </r>
       <r>    -6.8724     4.3679    10.3647 </r>
       <r>    -6.7919     7.7049    10.9854 </r>
       <r>    -6.7113     7.7924    11.6132 </r>
       <r>    -6.6307     4.5350    11.9786 </r>
       <r>    -6.5502     1.1438    12.0707 </r>
       <r>    -6.4696    -0.3083    12.0459 </r>
       <r>    -6.3890    -0.3746    12.0157 </r>
       <r>    -6.3085    -0.1521    12.0035 </r>
       <r>    -6.2279    -0.0365    12.0005 </r>
       <r>    -6.1473    -0.0057    12.0001 </r>
       <r>    -6.0668    -0.0006    12.0000 </r>
       <r>    -5.9862    -0.0000    12.0000 </r>
       <r>    -5.9056    -0.0000    12.0000 </r>
       <r>    -5.8251    -0.0000    12.0000 </r>
       <r>    -5.7445    -0.0000    12.0000 </r>
       <r>    -5.6639    -0.0000    12.0000 </r>
       <r>    -5.5834    -0.0000    12.0000 </r>
       <r>    -5.5028    -0.0000    12.0000 </r>
       <r>    -5.4223     0.0000    12.0000 </r>
       <r>    -5.3417     0.0000    12.0000 </r>
       <r>    -5.2611     0.0000    12.0000 </r>
       <r>    -5.1806     0.0000    12.0000 </r>
       <r>    -5.1000     0.0000    12.0000 </r>
       <r>    -5.0194     0.0000    12.0000 </r>
       <r>    -4.9389     0.0000    12.0000 </r>
       <r>    -4.8583     0.0000    12.0000 </r>
       <r>    -4.7777     0.0000    12.0000 </r>
       <r>    -4.6972     0.0000    12.0000 </r>
       <r>    -4.6166     0.0000    12.0000 </r>
       <r>    -4.5360     0.0000    12.0000 </r>
       <r>    -4.4555     0.0000    12.0000 </r>
       <r>    -4.3749     0.0000    12.0000 </r>
       <r>    -4.2944     0.0000    12.0000 </r>
       <r>    -4.2138     0.0000    12.0000 </r>
       <r>    -4.1332     0.0000    12.0000 </r>
       <r>    -4.0527     0.0000    12.0000 </r>
       <r>    -3.9721     0.0000    12.0000 </r>
       <r>    -3.8915     0.0000    12.0000 </r>
       <r>    -3.8110     0.0000    12.0000 </r>
       <r>    -3.7304     0.0000    12.0000 </r>
       <r>    -3.6498     0.0000    12.0000 </r>
       <r>    -3.5693     0.0000    12.0000 </r>
       <r>    -3.4887     0.0000    12.0000 </r>
       <r>    -3.4081     0.0000    12.0000 </r>
       <r>    -3.3276     0.0000    12.0000 </r>
       <r>    -3.2470     0.0000    12.0000 </r>
       <r>    -3.1664     0.0000    12.0000 </r>
       <r>    -3.0859     0.0000    12.0000 </r>
       <r>    -3.0053     0.0000    12.0000 </r>
       <r>    -2.9248     0.0000    12.0000 </r>
       <r>    -2.8442     0.0000    12.0000 </r>
       <r>    -2.7636    -0.0000    12.0000 </r>
       <r>    -2.6831    -0.0000    12.0000 </r>
       <r>    -2.6025    -0.0000    12.0000 </r>
       <r>    -2.5219    -0.0000    12.0000 </r>
       <r>    -2.4414    -0.0000    12.0000 </r>
       <r>    -2.3608    -0.0000    12.0000 </r>
       <r>    -2.2802    -0.0000    12.0000 </r>
       <r>    -2.1997    -0.0000    12.0000 </r>
       <r>    -2.1191    -0.0000    12.0000 </r>
       <r>    -2.0385    -0.0000    12.0000 </r>
       <r>    -1.9580    -0.0000    12.0000 </r>
       <r>    -1.8774    -0.0000    12.0000 </r>
       <r>    -1.7969    -0.0002    12.0000 </r>
       <r>    -1.7163    -0.0023    11.9998 </r>
       <r>    -1.6357    -0.0173    11.9984 </r>
       <r>    -1.5552    -0.0871    11.9914 </r>
       <r>    -1.4746    -0.2750    11.9692 </r>
       <r>    -1.3940    -0.4309    11.9345 </r>
       <r>    -1.3135     0.2674    11.9561 </r>
       <r>    -1.2329     2.8693    12.1872 </r>
       <r>    -1.1523     6.4996    12.7109 </r>
       <r>    -1.0718     7.8897    13.3465 </r>
       <r>    -0.9912     5.6845    13.8045 </r>
       <r>    -0.9106     3.3303    14.0728 </r>
       <r>    -0.8301     4.4228    14.4291 </r>
       <r>    -0.7495     7.2929    15.0166 </r>
       <r>    -0.6689     7.5430    15.6243 </r>
       <r>    -0.5884     4.4337    15.9815 </r>
       <r>    -0.5078     1.1095    16.0709 </r>
       <r>    -0.4273    -0.3145    16.0456 </r>
       <r>    -0.3467    -0.3729    16.0155 </r>
       <r>    -0.2661    -0.1505    16.0034 </r>
       <r>    -0.1856    -0.0359    16.0005 </r>
       <r>    -0.1050    -0.0058    16.0000 </r>
       <r>    -0.0244    -0.0026    15.9998 </r>
       <r>     0.0561    -0.0171    15.9985 </r>
       <r>     0.1367    -0.0985    15.9905 </r>
       <r>     0.2173    -0.3710    15.9606 </r>
       <r>     0.2978    -0.7959    15.8965 </r>
       <r>     0.3784    -0.3520    15.8681 </r>
       <r>     0.4590     3.1493    16.1219 </r>
       <r>     0.5395    10.0202    16.9291 </r>
       <r>     0.6201    15.4845    18.1767 </r>
       <r>     0.7006    14.5826    19.3515 </r>
       <r>     0.7812     9.9023    20.1493 </r>
       <r>     0.8618     7.5270    20.7557 </r>
       <r>     0.9423     8.2326    21.4189 </r>
       <r>     1.0229     9.3297    22.1706 </r>
       <r>     1.1035     9.5556    22.9404 </r>
       <r>     1.1840     8.0864    23.5919 </r>
       <r>     1.2646     4.6929    23.9700 </r>
       <r>     1.3452     1.3089    24.0754 </r>
       <r>     1.4257    -0.2800    24.0529 </r>
       <r>     1.5063    -0.4171    24.0193 </r>
       <r>     1.5869    -0.1833    24.0045 </r>
       <r>     1.6674    -0.0469    24.0007 </r>
       <r>     1.7480    -0.0078    24.0001 </r>
       <r>     1.8285    -0.0009    24.0000 </r>
       <r>     1.9091    -0.0001    24.0000 </r>
       <r>     1.9897    -0.0000    24.0000 </r>
       <r>     2.0702    -0.0000    24.0000 </r>
       <r>     2.1508    -0.0000    24.0000 </r>
       <r>     2.2314    -0.0000    24.0000 </r>
       <r>     2.3119    -0.0000    24.0000 </r>
       <r>     2.3925    -0.0000    24.0000 </r>
       <r>     2.4731     0.0000    24.0000 </r>
       <r>     2.5536     0.0000    24.0000 </r>
       <r>     2.6342     0.0000    24.0000 </r>
       <r>     2.7148     0.0000    24.0000 </r>
       <r>     2.7953     0.0000    24.0000 </r>
       <r>     2.8759     0.0000    24.0000 </r>
       <r>     2.9565     0.0000    24.0000 </r>
       <r>     3.0370     0.0000    24.0000 </r>
       <r>     3.1176     0.0000    24.0000 </r>
      </set>
     </set>
    </array>
   </total>
  </dos>
 </calculation>
 <structure name="finalpos" >
  <crystal>
   <varray name="basis" >
    <v>       9.00000000       0.00000000       0.00000000 </v>
    <v>       0.00000000       9.00000000       0.00000000 </v>
    <v>       0.00000000       0.00000000       9.00000000 </v>
   </varray>
   <i name="volume">    729.00000000 </i>
   <varray name="rec_basis" >
    <v>       0.11111111       0.00000000       0.00000000 </v>
    <v>       0.00000000       0.11111111       0.00000000 </v>
    <v>       0.00000000       0.00000000       0.11111111 </v>
   </varray>
  </crystal>
  <varray name="positions" >
   <v>       0.57291619       0.49780285       0.51413040 </v>
   <v>       0.42604508       0.49931338       0.49504285 </v>
   <v>       0.63659927       0.59957905       0.52212623 </v>
   <v>       0.63459273       0.39476445       0.52184653 </v>
   <v>       0.36424333       0.60218649       0.48671146 </v>
   <v>       0.36231634       0.39766081       0.48649245 </v>
  </varray>
 </structure>
</modeling>
