C2H4                                    
           1
     9.000000    0.000000    0.000000
     0.000000    9.000000    0.000000
     0.000000    0.000000    9.000000
   C    H 
     2     4
Direct configuration=     1
   0.57653318  0.49675635  0.50889250
   0.42222300  0.50034748  0.49248415
   0.57608877  0.61040879  0.51669639
   0.57608877  0.38311279  0.51669639
   0.42288961  0.60287771  0.49579026
   0.42288961  0.39780393  0.49579026
Direct configuration=     2
   0.56107742  0.49813041  0.50566262
   0.44066775  0.49896412  0.49038429
   0.59985685  0.61927081  0.52073484
   0.59844960  0.37410597  0.52045941
   0.39900996  0.64465718  0.49457675
   0.39765138  0.35617855  0.49453202
Direct configuration=     3
   0.56891710  0.49743344  0.50730092
   0.43131195  0.49966581  0.49144941
   0.58780088  0.61477570  0.51868640
   0.58710744  0.37867453  0.51855068
   0.41112252  0.62346522  0.49519228
   0.41045306  0.37729234  0.49517024
Direct configuration=     4
   0.58525872  0.49676408  0.50958131
   0.41362657  0.49997363  0.48785170
   0.61533402  0.61633860  0.52236421
   0.61286016  0.37871779  0.52180897
   0.38600872  0.63176295  0.49241784
   0.38362476  0.36774999  0.49232591
Direct configuration=     5
   0.57777084  0.49707078  0.50853642
   0.42173017  0.49983258  0.48950020
   0.60271809  0.61562247  0.52067901
   0.60106003  0.37869797  0.52031599
   0.39751609  0.62796086  0.49368911
   0.39591773  0.37212238  0.49362921
Direct configuration=     6
   0.56997289  0.49792680  0.50847105
   0.42595400  0.49940538  0.48993233
   0.62774931  0.61239424  0.52366685
   0.62480590  0.38228083  0.52305789
   0.37557945  0.62264729  0.49067922
   0.37265140  0.37665250  0.49054260
Direct configuration=     7
   0.56998866  0.49792507  0.50847118
   0.42594546  0.49940625  0.48993146
   0.62769870  0.61240076  0.52366080
   0.62475789  0.38227359  0.52305235
   0.37562380  0.62265803  0.49068530
   0.37269844  0.37664334  0.49054884
Direct configuration=     8
   0.57514749  0.49836494  0.51160259
   0.41974677  0.49902844  0.49092908
   0.64120085  0.60239119  0.52428520
   0.63788029  0.39235654  0.52362854
   0.36299076  0.60849034  0.48804176
   0.35974678  0.39067560  0.48786277
Direct configuration=     9
   0.57503761  0.49835557  0.51153589
   0.41987880  0.49903648  0.49090784
   0.64091326  0.60260439  0.52427190
   0.63760079  0.39214178  0.52361626
   0.36325984  0.60879211  0.48809806
   0.36002265  0.39037671  0.48791999
Direct configuration=    10
   0.56957604  0.49814864  0.51280254
   0.42769098  0.49883780  0.49383564
   0.64502542  0.59481248  0.52380273
   0.64194661  0.40002412  0.52321172
   0.35762182  0.59816832  0.48643099
   0.35485208  0.40131569  0.48626631
Direct configuration=    11
   0.57195802  0.49823889  0.51225011
   0.42428382  0.49892445  0.49255872
   0.64323196  0.59821080  0.52400735
   0.64005125  0.39658636  0.52338816
   0.36008076  0.60280172  0.48715806
   0.35710715  0.39654482  0.48698753
Direct configuration=    12
   0.57398278  0.49806631  0.51317105
   0.42467665  0.49908225  0.49349933
   0.64094502  0.59602330  0.52333200
   0.63826861  0.39858849  0.52281487
   0.36067189  0.60017170  0.48683929
   0.35816800  0.39937500  0.48669340
Direct configuration=    13
   0.57336408  0.49811904  0.51288964
   0.42455662  0.49903403  0.49321191
   0.64164383  0.59669172  0.52353836
   0.63881332  0.39797671  0.52299004
   0.36049126  0.60097534  0.48693670
   0.35784384  0.39851019  0.48678328
Direct configuration=    14
   0.57228682  0.49799992  0.51327381
   0.42693936  0.49918612  0.49432650
   0.63961738  0.59638647  0.52295869
   0.63730886  0.39802105  0.52251725
   0.36136478  0.59986152  0.48670206
   0.35919574  0.39985197  0.48657162
Direct configuration=    15
   0.57269457  0.49804501  0.51312840
   0.42603747  0.49912855  0.49390462
   0.64038441  0.59650201  0.52317810
   0.63787831  0.39800426  0.52269621
   0.36103414  0.60028311  0.48679087
   0.35868403  0.39934410  0.48665173
Direct configuration=    16
   0.57290344  0.49789626  0.51349991
   0.42595346  0.49925688  0.49442537
   0.63906945  0.59727530  0.52279951
   0.63688401  0.39709300  0.52239016
   0.36196302  0.60015323  0.48668177
   0.35993956  0.39963238  0.48655321
Direct configuration=    17
   0.57306686  0.49777988  0.51379057
   0.42588774  0.49935727  0.49483279
   0.63804067  0.59788030  0.52250332
   0.63610610  0.39638006  0.52215072
   0.36268974  0.60005162  0.48659641
   0.36092185  0.39985792  0.48647613
Direct configuration=    18
   0.57278657  0.49769499  0.51401423
   0.42651653  0.49942922  0.49525517
   0.63714823  0.59880829  0.52223747
   0.63539811  0.39537171  0.52193670
   0.36322870  0.60066516  0.48651595
   0.36163481  0.39933767  0.48639042
Direct configuration=    19
   0.57275444  0.49768526  0.51403987
   0.42658860  0.49943747  0.49530358
   0.63704593  0.59891466  0.52220700
   0.63531696  0.39525613  0.52191217
   0.36329048  0.60073548  0.48650673
   0.36171653  0.39927804  0.48638059
Direct configuration=    20
   0.57323880  0.49767570  0.51424284
   0.42638574  0.49944614  0.49539864
   0.63653361  0.59948608  0.52206446
   0.63483691  0.39467131  0.52179488
   0.36364161  0.60145459  0.48649720
   0.36207627  0.39857323  0.48635192
Direct configuration=    21
   0.57327491  0.49767499  0.51425797
   0.42637062  0.49944679  0.49540573
   0.63649542  0.59952867  0.52205384
   0.63480113  0.39462771  0.52178614
   0.36366779  0.60150819  0.48649648
   0.36210309  0.39852069  0.48634978
Direct configuration=    22
   0.57334712  0.49767357  0.51428823
   0.42634037  0.49944808  0.49541990
   0.63641904  0.59961386  0.52203259
   0.63472956  0.39454052  0.52176865
   0.36372013  0.60161540  0.48649506
   0.36215672  0.39841561  0.48634550
Direct configuration=    23
   0.57329395  0.49767462  0.51426595
   0.42636264  0.49944713  0.49540946
   0.63647528  0.59955114  0.52204824
   0.63478226  0.39460472  0.52178152
   0.36368159  0.60153646  0.48649611
   0.36211723  0.39849298  0.48634865
Direct configuration=    24
   0.57313745  0.49770779  0.51424013
   0.42635611  0.49941098  0.49533700
   0.63650095  0.59963227  0.52205931
   0.63472795  0.39457017  0.52178973
   0.36382304  0.60178296  0.48654491
   0.36216746  0.39820287  0.48637885
Direct configuration=    25
   0.57304593  0.49772718  0.51422503
   0.42635228  0.49938985  0.49529463
   0.63651595  0.59967971  0.52206579
   0.63469619  0.39454997  0.52179453
   0.36390576  0.60192711  0.48657345
   0.36219683  0.39803322  0.48639651
Direct configuration=    26
   0.57302308  0.49776233  0.51419534
   0.42616472  0.49935369  0.49517576
   0.63655405  0.59966287  0.52208957
   0.63464437  0.39462097  0.52181390
   0.36406940  0.60207868  0.48663605
   0.36225732  0.39782851  0.48643932
Direct configuration=    27
   0.57300947  0.49778328  0.51417765
   0.42605297  0.49933214  0.49510493
   0.63657675  0.59965284  0.52210374
   0.63461349  0.39466327  0.52182544
   0.36416689  0.60216898  0.48667335
   0.36229337  0.39770654  0.48646482
Direct configuration=    28
   0.57291619  0.49780285  0.51413040
   0.42604508  0.49931338  0.49504285
   0.63659927  0.59957905  0.52212623
   0.63459273  0.39476445  0.52184653
   0.36424333  0.60218649  0.48671146
   0.36231634  0.39766081  0.48649245
